
     Program CP v.6.6 starts on 16Feb2021 at 10:54: 2 

     This program is part of the open-source Quantum ESPRESSO suite
     for quantum simulation of materials; please cite
         "P. Giannozzi et al., J. Phys.:Condens. Matter 21 395502 (2009);
         "P. Giannozzi et al., J. Phys.:Condens. Matter 29 465901 (2017);
          URL http://www.quantum-espresso.org", 
     in publications or presentations arising from this work. More details at
     http://www.quantum-espresso.org/quote

     Parallel version (MPI & OpenMP), running on     320 processor cores
     Number of MPI processes:               160
     Threads/MPI process:                     2

     MPI processes distributed on     4 nodes
     R & G space division:  proc/nbgrp/npool/nimage =     160
     Fft bands division:     nmany     =       1
     Waiting for input...
     Reading input from standard input

   Job Title: MD Simulation


   Atomic Pseudopotentials Parameters
   ----------------------------------

   Reading pseudopotential for specie #  1 from file :
   ./O.pz-n-rrkjus_psl.0.1.UPF
     Message from routine emend_upf/check:
     BEWARE !!! Possible out of bounds while fixing pseudo
     Message from routine emend_upf/check:
     BEWARE !!! Possible out of bounds while fixing pseudo
     Message from routine read_upf:
     Pseudo file O.pz-n-rrkjus_psl.0.1.UPF has been fixed on the fly.
     To avoid this message in the future, permanently fix 
     your pseudo files following these instructions: 
     https://gitlab.com/QEF/q-e/blob/master/upftools/how_to_fix_upf.md
   file type is UPF v.2

   Reading pseudopotential for specie #  2 from file :
   ./Ag.pz-d-rrkjus.UPF
   file type is UPF v.1

   Reading pseudopotential for specie #  3 from file :
   ./Mg.pz-bhs.UPF
   file type is UPF v.1
     file Ag.pz-d-rrkjus.UPF: wavefunction(s)  4D 5S renormalized


   Main Simulation Parameters (from input)
   ---------------------------------------
   Restart Mode       =       0   reset_counters 
   Number of MD Steps =    1000
   Print out every           10 MD Steps
   Reads from unit    =      56
   Writes to unit     =      57
   MD Simulation time step            =       8.00
   Electronic fictitious mass (emass) =     300.00
   emass cut-off                      =       2.50

   Simulation Cell Parameters (from input)
   external pressure       =            0.00 [KBar]
   wmass (calculated)      =       949740.81 [AU]
   initial cell from CELL_PARAMETERS card
      12.63360000    0.00000000    0.00000000
       0.00000000   12.63360000    0.00000000
       0.00000000    0.00000000   16.84480000
   ibrav =    0
   alat  =    23.87404397
   a1    =    23.87404397    0.00000000    0.00000000
   a2    =     0.00000000   23.87404397    0.00000000
   a3    =     0.00000000    0.00000000   31.83205862
 
   b1    =     0.04188649    0.00000000    0.00000000
   b2    =     0.00000000    0.04188649    0.00000000
   b3    =     0.00000000    0.00000000    0.03141487
   omega =   18143.31767057

   Energy Cut-offs
   ---------------
   Ecutwfc =   50.0 Ry,      Ecutrho =  400.0 Ry,      Ecuts =  200.0 Ry
   Gcutwfc =   26.9     ,    Gcutrho =   76.0          Gcuts =   53.7
   NOTA BENE: refg, mmx =   0.050000  9600
   Eigenvalues calculated without the kinetic term contribution
   Orthog. with lagrange multipliers : eps =   0.10E-08,  max = 100
   verlet algorithm for electron dynamics
   with friction frice =  0.0500 , grease =  1.0000
   Electron dynamics : the temperature is not controlled

   Electronic states
   -----------------
   Number of Electrons=  1236, of States =   618
   Occupation numbers :
   2.00 2.00 2.00 2.00 2.00 2.00 2.00 2.00 2.00 2.00
   2.00 2.00 2.00 2.00 2.00 2.00 2.00 2.00 2.00 2.00
   2.00 2.00 2.00 2.00 2.00 2.00 2.00 2.00 2.00 2.00
   2.00 2.00 2.00 2.00 2.00 2.00 2.00 2.00 2.00 2.00
   2.00 2.00 2.00 2.00 2.00 2.00 2.00 2.00 2.00 2.00
   2.00 2.00 2.00 2.00 2.00 2.00 2.00 2.00 2.00 2.00
   2.00 2.00 2.00 2.00 2.00 2.00 2.00 2.00 2.00 2.00
   2.00 2.00 2.00 2.00 2.00 2.00 2.00 2.00 2.00 2.00
   2.00 2.00 2.00 2.00 2.00 2.00 2.00 2.00 2.00 2.00
   2.00 2.00 2.00 2.00 2.00 2.00 2.00 2.00 2.00 2.00
   2.00 2.00 2.00 2.00 2.00 2.00 2.00 2.00 2.00 2.00
   2.00 2.00 2.00 2.00 2.00 2.00 2.00 2.00 2.00 2.00
   2.00 2.00 2.00 2.00 2.00 2.00 2.00 2.00 2.00 2.00
   2.00 2.00 2.00 2.00 2.00 2.00 2.00 2.00 2.00 2.00
   2.00 2.00 2.00 2.00 2.00 2.00 2.00 2.00 2.00 2.00
   2.00 2.00 2.00 2.00 2.00 2.00 2.00 2.00 2.00 2.00
   2.00 2.00 2.00 2.00 2.00 2.00 2.00 2.00 2.00 2.00
   2.00 2.00 2.00 2.00 2.00 2.00 2.00 2.00 2.00 2.00
   2.00 2.00 2.00 2.00 2.00 2.00 2.00 2.00 2.00 2.00
   2.00 2.00 2.00 2.00 2.00 2.00 2.00 2.00 2.00 2.00
   2.00 2.00 2.00 2.00 2.00 2.00 2.00 2.00 2.00 2.00
   2.00 2.00 2.00 2.00 2.00 2.00 2.00 2.00 2.00 2.00
   2.00 2.00 2.00 2.00 2.00 2.00 2.00 2.00 2.00 2.00
   2.00 2.00 2.00 2.00 2.00 2.00 2.00 2.00 2.00 2.00
   2.00 2.00 2.00 2.00 2.00 2.00 2.00 2.00 2.00 2.00
   2.00 2.00 2.00 2.00 2.00 2.00 2.00 2.00 2.00 2.00
   2.00 2.00 2.00 2.00 2.00 2.00 2.00 2.00 2.00 2.00
   2.00 2.00 2.00 2.00 2.00 2.00 2.00 2.00 2.00 2.00
   2.00 2.00 2.00 2.00 2.00 2.00 2.00 2.00 2.00 2.00
   2.00 2.00 2.00 2.00 2.00 2.00 2.00 2.00 2.00 2.00
   2.00 2.00 2.00 2.00 2.00 2.00 2.00 2.00 2.00 2.00
   2.00 2.00 2.00 2.00 2.00 2.00 2.00 2.00 2.00 2.00
   2.00 2.00 2.00 2.00 2.00 2.00 2.00 2.00 2.00 2.00
   2.00 2.00 2.00 2.00 2.00 2.00 2.00 2.00 2.00 2.00
   2.00 2.00 2.00 2.00 2.00 2.00 2.00 2.00 2.00 2.00
   2.00 2.00 2.00 2.00 2.00 2.00 2.00 2.00 2.00 2.00
   2.00 2.00 2.00 2.00 2.00 2.00 2.00 2.00 2.00 2.00
   2.00 2.00 2.00 2.00 2.00 2.00 2.00 2.00 2.00 2.00
   2.00 2.00 2.00 2.00 2.00 2.00 2.00 2.00 2.00 2.00
   2.00 2.00 2.00 2.00 2.00 2.00 2.00 2.00 2.00 2.00
   2.00 2.00 2.00 2.00 2.00 2.00 2.00 2.00 2.00 2.00
   2.00 2.00 2.00 2.00 2.00 2.00 2.00 2.00 2.00 2.00
   2.00 2.00 2.00 2.00 2.00 2.00 2.00 2.00 2.00 2.00
   2.00 2.00 2.00 2.00 2.00 2.00 2.00 2.00 2.00 2.00
   2.00 2.00 2.00 2.00 2.00 2.00 2.00 2.00 2.00 2.00
   2.00 2.00 2.00 2.00 2.00 2.00 2.00 2.00 2.00 2.00
   2.00 2.00 2.00 2.00 2.00 2.00 2.00 2.00 2.00 2.00
   2.00 2.00 2.00 2.00 2.00 2.00 2.00 2.00 2.00 2.00
   2.00 2.00 2.00 2.00 2.00 2.00 2.00 2.00 2.00 2.00
   2.00 2.00 2.00 2.00 2.00 2.00 2.00 2.00 2.00 2.00
   2.00 2.00 2.00 2.00 2.00 2.00 2.00 2.00 2.00 2.00
   2.00 2.00 2.00 2.00 2.00 2.00 2.00 2.00 2.00 2.00
   2.00 2.00 2.00 2.00 2.00 2.00 2.00 2.00 2.00 2.00
   2.00 2.00 2.00 2.00 2.00 2.00 2.00 2.00 2.00 2.00
   2.00 2.00 2.00 2.00 2.00 2.00 2.00 2.00 2.00 2.00
   2.00 2.00 2.00 2.00 2.00 2.00 2.00 2.00 2.00 2.00
   2.00 2.00 2.00 2.00 2.00 2.00 2.00 2.00 2.00 2.00
   2.00 2.00 2.00 2.00 2.00 2.00 2.00 2.00 2.00 2.00
   2.00 2.00 2.00 2.00 2.00 2.00 2.00 2.00 2.00 2.00
   2.00 2.00 2.00 2.00 2.00 2.00 2.00 2.00 2.00 2.00
   2.00 2.00 2.00 2.00 2.00 2.00 2.00 2.00 2.00 2.00
   2.00 2.00 2.00 2.00 2.00 2.00 2.00 2.00


   Exchange and correlations functionals
   -------------------------------------
     Exchange-correlation=  SLA  PZ   NOGX NOGC
                           (   1   1   0   0   0   0   0)


   Ions Simulation Parameters
   --------------------------
   Ions are not allowed to move
   Ionic position (from input)
   sorted by specie, and converted to real a.u. coordinates
   Species   1 atoms =  138 mass =     29166.22 (a.u.),        16.00 (amu) rcmax =   0.50 (a.u.)
       17.686732    17.800724    29.675879
       17.686732    21.779731    25.696872
       21.665740    17.800724    25.696872
       21.665739    21.779731    29.675879
       17.686732    17.800724    21.717864
       17.686732    21.779731    17.738857
       21.665740    17.800724    17.738857
       21.665740    21.779731    21.717864
       17.686732    17.800724    13.759849
       17.686732    21.779732     9.780841
       21.665740    17.800724     9.780841
       21.665740    21.779731    13.759849
       17.686733    17.800725     5.801834
       17.686733    21.779732     1.822826
       21.665741    17.800725     1.822826
       21.665740    21.779732     5.801834
       17.686732     9.842708    29.675879
       17.686732    13.821716    25.696872
       21.665740     9.842709    25.696872
       21.665740    13.821716    29.675879
       17.686732     9.842709    21.717864
       17.686732    13.821716    17.738857
       21.665740     9.842709    17.738857
       21.665740    13.821716    21.717864
       17.686733     9.842709    13.759849
       17.686733    13.821717     9.780841
       21.665741     9.842709     9.780841
       21.665740    13.821716    13.759849
       17.686733     9.842709     5.801834
       17.686733    13.821717     1.822826
       21.665741     9.842710     1.822826
       21.665741    13.821717     5.801834
       17.686732     1.884693    29.675879
       17.686732     5.863701    25.696872
       21.665740     1.884693    25.696872
       21.665740     5.863701    29.675879
       17.686733     1.884694    21.717864
       17.686733     5.863701    17.738857
       21.665741     1.884694    17.738857
       21.665740     5.863701    21.717864
       17.686733     1.884694    13.759849
       17.686733     5.863701     9.780841
       21.665741     1.884694     9.780841
       21.665741     5.863701    13.759849
       17.686733     1.884694     5.801834
       17.686733     5.863702     1.822826
       21.665741     1.884695     1.822826
       21.665741     5.863702     5.801834
        9.728716    17.800724    29.675879
        9.728716    21.779731    25.696872
       13.707725    17.800724    25.696872
       13.707724    21.779731    29.675879
        9.728717    17.800724    21.717864
        9.728717    21.779731    17.738857
       13.707725    17.800724    17.738857
       13.707725    21.779731    21.717864
        9.728717    17.800724    13.759849
        9.728717    21.779732     9.780841
       13.707725    17.800724     9.780841
       13.707725    21.779731    13.759849
        9.728718    17.800725     5.801834
        9.728718    21.779732     1.822826
       13.707726    17.800725     1.822826
       13.707725    21.779732     5.801834
        9.728717     9.842708    29.675879
        9.728717    13.821716    25.696872
       13.707725     9.842709    25.696872
       13.707725    13.821716    29.675879
        9.728717     9.842709    21.717864
        9.728717    13.821716    17.738857
       13.707725     9.842709    17.738857
       13.707725    13.821716    21.717864
        9.728718     9.842709    13.759849
        9.728718    13.821717     9.780841
       13.707726     9.842709     9.780841
       13.707725    13.821716    13.759849
        9.728718     9.842709     5.801834
        9.728718    13.821717     1.822826
       13.707726     9.842710     1.822826
       13.707726    13.821717     5.801834
        9.728717     1.884693    29.675879
        9.728717     5.863701    25.696872
       13.707725     1.884693    25.696872
       13.707725     5.863701    29.675879
        9.728718     1.884694    21.717864
        9.728718     5.863701    17.738857
       13.707726     1.884694    17.738857
       13.707725     5.863701    21.717864
        9.728718     1.884694    13.759849
        9.728718     5.863701     9.780841
       13.707726     1.884694     9.780841
       13.707726     5.863701    13.759849
        9.728718     1.884694     5.801834
        9.728718     5.863702     1.822826
       13.707726     1.884695     1.822826
       13.707726     5.863702     5.801834
        1.770701    17.800724    29.675879
        1.770701    21.779731    25.696872
        5.749709    17.800724    25.696872
        5.749709    21.779731    29.675879
        1.770702    17.800724    21.717864
        1.770702    21.779731    17.738857
        5.749710    17.800724    17.738857
        5.749709    21.779731    21.717864
        1.770702    17.800724    13.759849
        1.770702    21.779732     9.780841
        5.749710    17.800724     9.780841
        5.749710    21.779731    13.759849
        1.770702    17.800725     5.801834
        1.770702    21.779732     1.822826
        5.749711    17.800725     1.822826
        5.749710    21.779732     5.801834
        1.770702     9.842708    29.675879
        1.770702    13.821716    25.696872
        5.749710     9.842709    25.696872
        5.749709    13.821716    29.675879
        1.770702     9.842709    21.717864
        5.749710    13.821716    21.717864
        1.770703     9.842709     5.801834
        1.770703    13.821717     1.822826
        5.749711     9.842710     1.822826
        5.749711    13.821717     5.801834
        1.770702     1.884693    29.675879
        1.770702     5.863701    25.696872
        5.749710     1.884693    25.696872
        5.749710     5.863701    29.675879
        1.770702     1.884694    21.717864
        1.770702     5.863701    17.738857
        5.749711     1.884694    17.738857
        5.749710     5.863701    21.717864
        1.770703     1.884694    13.759849
        1.770703     5.863701     9.780841
        5.749711     1.884694     9.780841
        5.749711     5.863701    13.759849
        1.770703     1.884694     5.801834
        1.770703     5.863702     1.822826
        5.749711     1.884695     1.822826
        5.749711     5.863702     5.801834
   Species   2 atoms =   12 mass =    196689.67 (a.u.),       107.90 (amu) rcmax =   0.50 (a.u.)
        1.770702    13.821716    17.738857
        5.749710     9.842709    17.738857
        5.749710    13.821716    17.738857
        1.770702     9.842709    17.738857
        1.770702     9.842709    13.759849
        1.770702    13.821717     9.780841
        5.749711     9.842709     9.780841
        5.749710    13.821717     9.780841
        5.749710     9.842709    13.759849
        1.770702    13.821717    13.759849
        5.749710    13.821716    13.759849
        1.770703     9.842709     9.780841
   Species   3 atoms =  138 mass =     44296.19 (a.u.),        24.30 (amu) rcmax =   0.50 (a.u.)
       21.665739    21.779731    25.696872
       21.665739    17.800724    29.675879
       17.686731    21.779731    29.675879
       17.686732    17.800724    25.696872
       21.665740    21.779732    17.738857
       21.665740    17.800724    21.717864
       17.686732    21.779731    21.717864
       17.686732    17.800724    17.738857
       21.665740    21.779732     9.780841
       21.665740    17.800724    13.759849
       17.686732    21.779732    13.759849
       17.686732    17.800724     9.780841
       21.665740    21.779732     1.822826
       21.665740    17.800725     5.801834
       17.686732    21.779732     5.801834
       17.686733    17.800725     1.822826
       21.665740    13.821716    25.696872
       21.665740     9.842708    29.675879
       17.686732    13.821716    29.675879
       17.686732     9.842709    25.696872
       21.665740    13.821716    17.738857
       21.665740     9.842709    21.717864
       17.686732    13.821716    21.717864
       17.686732     9.842709    17.738857
       21.665740    13.821717     9.780841
       21.665740     9.842709    13.759849
       17.686732    13.821717    13.759849
       17.686733     9.842709     9.780841
       21.665741    13.821717     1.822826
       21.665741     9.842709     5.801834
       17.686733    13.821717     5.801834
       17.686733     9.842710     1.822826
       21.665740     5.863701    25.696872
       21.665740     1.884693    29.675879
       17.686732     5.863701    29.675879
       17.686732     1.884693    25.696872
       21.665740     5.863701    17.738857
       21.665740     1.884694    21.717864
       17.686732     5.863701    21.717864
       17.686733     1.884694    17.738857
       21.665741     5.863702     9.780841
       21.665741     1.884694    13.759849
       17.686733     5.863702    13.759849
       17.686733     1.884694     9.780841
       21.665741     5.863702     1.822826
       21.665741     1.884694     5.801834
       17.686733     5.863702     5.801834
       17.686734     1.884695     1.822826
       13.707724    21.779731    25.696872
       13.707724    17.800724    29.675879
        9.728716    21.779731    29.675879
        9.728717    17.800724    25.696872
       13.707724    21.779732    17.738857
       13.707724    17.800724    21.717864
        9.728717    21.779731    21.717864
        9.728717    17.800724    17.738857
       13.707725    21.779732     9.780841
       13.707725    17.800724    13.759849
        9.728717    21.779732    13.759849
        9.728717    17.800724     9.780841
       13.707725    21.779732     1.822826
       13.707725    17.800725     5.801834
        9.728717    21.779732     5.801834
        9.728718    17.800725     1.822826
       13.707724    13.821716    25.696872
       13.707724     9.842708    29.675879
        9.728717    13.821716    29.675879
        9.728717     9.842709    25.696872
       13.707725    13.821716    17.738857
       13.707725     9.842709    21.717864
        9.728717    13.821716    21.717864
        9.728717     9.842709    17.738857
       13.707725    13.821717     9.780841
       13.707725     9.842709    13.759849
        9.728717    13.821717    13.759849
        9.728718     9.842709     9.780841
       13.707725    13.821717     1.822826
       13.707725     9.842709     5.801834
        9.728718    13.821717     5.801834
        9.728718     9.842710     1.822826
       13.707725     5.863701    25.696872
       13.707725     1.884693    29.675879
        9.728717     5.863701    29.675879
        9.728717     1.884693    25.696872
       13.707725     5.863701    17.738857
       13.707725     1.884694    21.717864
        9.728717     5.863701    21.717864
        9.728718     1.884694    17.738857
       13.707725     5.863702     9.780841
       13.707725     1.884694    13.759849
        9.728718     5.863702    13.759849
        9.728718     1.884694     9.780841
       13.707726     5.863702     1.822826
       13.707726     1.884694     5.801834
        9.728718     5.863702     5.801834
        9.728718     1.884695     1.822826
        5.749709    21.779731    25.696872
        5.749709    17.800724    29.675879
        1.770701    21.779731    29.675879
        1.770702    17.800724    25.696872
        5.749709    21.779732    17.738857
        5.749709    17.800724    21.717864
        1.770702    21.779731    21.717864
        1.770702    17.800724    17.738857
        5.749710    21.779732     9.780841
        5.749710    17.800724    13.759849
        1.770702    21.779732    13.759849
        1.770702    17.800724     9.780841
        5.749710    21.779732     1.822826
        5.749710    17.800725     5.801834
        1.770702    21.779732     5.801834
        1.770703    17.800725     1.822826
        5.749709    13.821716    25.696872
        5.749709     9.842708    29.675879
        1.770702    13.821716    29.675879
        1.770702     9.842709    25.696872
        5.749710     9.842709    21.717864
        1.770702    13.821716    21.717864
        5.749710    13.821717     1.822826
        5.749710     9.842709     5.801834
        1.770703    13.821717     5.801834
        1.770703     9.842710     1.822826
        5.749710     5.863701    25.696872
        5.749710     1.884693    29.675879
        1.770702     5.863701    29.675879
        1.770702     1.884693    25.696872
        5.749710     5.863701    17.738857
        5.749710     1.884694    21.717864
        1.770702     5.863701    21.717864
        1.770703     1.884694    17.738857
        5.749710     5.863702     9.780841
        5.749710     1.884694    13.759849
        1.770703     5.863702    13.759849
        1.770703     1.884694     9.780841
        5.749711     5.863702     1.822826
        5.749711     1.884694     5.801834
        1.770703     5.863702     5.801834
        1.770703     1.884695     1.822826
   Ionic position will be re-read from restart file


   Cell Dynamics Parameters (from STDIN)
   -------------------------------------
   internal stress tensor calculated
   Starting cell generated from CELLDM
   Cell parameters will be re-read from restart file
   Constant VOLUME Molecular dynamics
   cell parameters are not allowed to move

    =====================================
    |  BERRY PHASE ELECTRIC FIELD 1        
    =====================================
    | direction    =         3            
    | intensity    =   0.00000 a.u.     
    =====================================

   Verbosity: iverbosity =  0



   Simulation dimensions initialization
   ------------------------------------

   unit vectors of full simulation cell
   in real space:                         in reciprocal space (units 2pi/alat):
   1    23.8740    0.0000    0.0000              1.0000    0.0000    0.0000
   2     0.0000   23.8740    0.0000              0.0000    1.0000    0.0000
   3     0.0000    0.0000   31.8321              0.0000    0.0000    0.7500
 
     Parallelization info
     --------------------
     sticks:   dense  smooth     PW     G-vecs:    dense   smooth      PW
     Min         112      55     13                15304     5404     658
     Max         114      58     16                15338     5430     686
     Sum       18121    9057   2249              2451395   866495  108199
 
 
   Real Mesh
   ---------
   Global Dimensions   Local  Dimensions   Processor Grid
   .X.   .Y.   .Z.     .X.   .Y.   .Z.     .X.   .Y.   .Z.
   160   160   216     160   160     2       1     1   160
   Array leading dimensions ( nr1x, nr2x, nr3x )   =    160   160   216
   Local number of cell to store the grid ( nrxx ) =      51200
   Number of x-y planes for each processors: 
  | 160,   2  | 160,   2  | 160,   2  | 160,   2  | 160,   2
  | 160,   2  | 160,   2  | 160,   2  | 160,   2  | 160,   2
  | 160,   2  | 160,   2  | 160,   2  | 160,   2  | 160,   2
  | 160,   2  | 160,   2  | 160,   2  | 160,   2  | 160,   2
  | 160,   2  | 160,   2  | 160,   2  | 160,   2  | 160,   2
  | 160,   2  | 160,   2  | 160,   2  | 160,   2  | 160,   2
  | 160,   2  | 160,   2  | 160,   2  | 160,   2  | 160,   2
  | 160,   2  | 160,   2  | 160,   2  | 160,   2  | 160,   2
  | 160,   2  | 160,   2  | 160,   2  | 160,   2  | 160,   2
  | 160,   2  | 160,   2  | 160,   2  | 160,   2  | 160,   2
  | 160,   2  | 160,   2  | 160,   2  | 160,   2  | 160,   2
  | 160,   2  | 160,   1  | 160,   1  | 160,   1  | 160,   1
  | 160,   1  | 160,   1  | 160,   1  | 160,   1  | 160,   1
  | 160,   1  | 160,   1  | 160,   1  | 160,   1  | 160,   1
  | 160,   1  | 160,   1  | 160,   1  | 160,   1  | 160,   1
  | 160,   1  | 160,   1  | 160,   1  | 160,   1  | 160,   1
  | 160,   1  | 160,   1  | 160,   1  | 160,   1  | 160,   1
  | 160,   1  | 160,   1  | 160,   1  | 160,   1  | 160,   1
  | 160,   1  | 160,   1  | 160,   1  | 160,   1  | 160,   1
  | 160,   1  | 160,   1  | 160,   1  | 160,   1  | 160,   1
  | 160,   1  | 160,   1  | 160,   1  | 160,   1  | 160,   1
  | 160,   1  | 160,   1  | 160,   1  | 160,   1  | 160,   1
  | 160,   1  | 160,   1  | 160,   1  | 160,   1  | 160,   1
  | 160,   1  | 160,   1  | 160,   1  | 160,   1  | 160,   1
  | 160,   1  | 160,   1  | 160,   1  | 160,   1  | 160,   1
  | 160,   1  | 160,   1  | 160,   1  | 160,   1  | 160,   1
  | 160,   1  | 160,   1  | 160,   1  | 160,   1  | 160,   1
  | 160,   1  | 160,   1  | 160,   1  | 160,   1  | 160,   1
  | 160,   1  | 160,   1  | 160,   1  | 160,   1  | 160,   1
  | 160,   1  | 160,   1  | 160,   1  | 160,   1  | 160,   1
  | 160,   1  | 160,   1  | 160,   1  | 160,   1  | 160,   1
  | 160,   1  | 160,   1  | 160,   1  | 160,   1  | 160,   1
 
   Smooth Real Mesh
   ----------------
   Global Dimensions   Local  Dimensions   Processor Grid
   .X.   .Y.   .Z.     .X.   .Y.   .Z.     .X.   .Y.   .Z.
   108   108   144     108   108     1       1     1   160
   Array leading dimensions ( nr1x, nr2x, nr3x )   =    108   108   144
   Local number of cell to store the grid ( nrxx ) =      11664
   Number of x-y planes for each processors: 
  | 108,   1  | 108,   1  | 108,   1  | 108,   1  | 108,   1
  | 108,   1  | 108,   1  | 108,   1  | 108,   1  | 108,   1
  | 108,   1  | 108,   1  | 108,   1  | 108,   1  | 108,   1
  | 108,   1  | 108,   1  | 108,   1  | 108,   1  | 108,   1
  | 108,   1  | 108,   1  | 108,   1  | 108,   1  | 108,   1
  | 108,   1  | 108,   1  | 108,   1  | 108,   1  | 108,   1
  | 108,   1  | 108,   1  | 108,   1  | 108,   1  | 108,   1
  | 108,   1  | 108,   1  | 108,   1  | 108,   1  | 108,   1
  | 108,   1  | 108,   1  | 108,   1  | 108,   1  | 108,   1
  | 108,   1  | 108,   1  | 108,   1  | 108,   1  | 108,   1
  | 108,   1  | 108,   1  | 108,   1  | 108,   1  | 108,   1
  | 108,   1  | 108,   1  | 108,   1  | 108,   1  | 108,   1
  | 108,   1  | 108,   1  | 108,   1  | 108,   1  | 108,   1
  | 108,   1  | 108,   1  | 108,   1  | 108,   1  | 108,   1
  | 108,   1  | 108,   1  | 108,   1  | 108,   1  | 108,   1
  | 108,   1  | 108,   1  | 108,   1  | 108,   1  | 108,   1
  | 108,   1  | 108,   1  | 108,   1  | 108,   1  | 108,   1
  | 108,   1  | 108,   1  | 108,   1  | 108,   1  | 108,   1
  | 108,   1  | 108,   1  | 108,   1  | 108,   1  | 108,   1
  | 108,   1  | 108,   1  | 108,   1  | 108,   1  | 108,   1
  | 108,   1  | 108,   1  | 108,   1  | 108,   1  | 108,   1
  | 108,   1  | 108,   1  | 108,   1  | 108,   1  | 108,   1
  | 108,   1  | 108,   1  | 108,   1  | 108,   1  | 108,   1
  | 108,   1  | 108,   1  | 108,   1  | 108,   1  | 108,   1
  | 108,   1  | 108,   1  | 108,   1  | 108,   1  | 108,   1
  | 108,   1  | 108,   1  | 108,   1  | 108,   1  | 108,   1
  | 108,   1  | 108,   1  | 108,   1  | 108,   1  | 108,   1
  | 108,   1  | 108,   1  | 108,   1  | 108,   1  | 108,   1
  | 108,   1  | 108,   1  | 108,   1  | 108,   1  | 108,   0
  | 108,   0  | 108,   0  | 108,   0  | 108,   0  | 108,   0
  | 108,   0  | 108,   0  | 108,   0  | 108,   0  | 108,   0
  | 108,   0  | 108,   0  | 108,   0  | 108,   0  | 108,   0
 
   Small Box Real Mesh
   -------------------
   Global Dimensions   Local  Dimensions   Processor Grid
   .X.   .Y.   .Z.     .X.   .Y.   .Z.     .X.   .Y.   .Z.
    30    30    30      30    30    30       1     1     1
   Array leading dimensions ( nr1x, nr2x, nr3x )   =     30    30    30
   Local number of cell to store the grid ( nrxx ) =      27000
 
   unit vectors of box grid cell
   in real space:                         in reciprocal space:
       4.4764    0.0000    0.0000              1.0000    0.0000    0.0000
       0.0000    4.4764    0.0000              0.0000    1.0000    0.0000
       0.0000    0.0000    4.4211              0.0000    0.0000    1.0125
 
   Reciprocal Space Mesh
   ---------------------
   Large Mesh
     Global(ngm_g)    MinLocal       MaxLocal      Average
        1225698           7652           7669        7660.61
   Smooth Mesh
     Global(ngms_g)   MinLocal       MaxLocal      Average
         433248           2702           2715        2707.80
   Wave function Mesh
     Global(ngw_g)    MinLocal       MaxLocal      Average
          54100            329            343         338.12

   Small box Mesh
   ngb =         5979 not distributed to processors


   System geometry initialization
   ------------------------------
   cell parameters read from restart file
   ibrav =    0       cell parameters 


   cell at current step : h(t)
      24.54239       0.00076       0.00000
       0.00076      24.54229       0.00000
       0.00000       0.00000      32.45460

   cell at previous step : h(t-dt)
      24.54239       0.00076       0.00000
       0.00076      24.54229       0.00000
       0.00000       0.00000      32.45460
 
 
   unit vectors of box grid cell
   in real space:                         in reciprocal space:
       4.6017    0.0001    0.0000              1.0000   -0.0000   -0.0000
       0.0001    4.6017    0.0000             -0.0000    1.0000   -0.0000
       0.0000    0.0000    4.5076             -0.0000   -0.0000    1.0209

   Matrix Multiplication Performances
   ortho mmul, time for parallel driver      =   0.00106 with  144 procs

   Constraints matrixes will be distributed block like on
   ortho sub-group =   12*  12 procs



   Pseudopotentials initialization
   -------------------------------
is, nh(is), ngb, kkbeta, lmaxq =     1    8 5979  761    5
 
                        qqq 
  -0.1545  -0.1232   0.0000   0.0000
  -0.1232  -0.0988   0.0000   0.0000
   0.0000   0.0000   0.1445   0.1161
   0.0000   0.0000   0.1161   0.0931
 
is, nh(is), ngb, kkbeta, lmaxq =     2   13 5979  987    5
 
                        qqq 
  -0.0000   0.0000   0.0000
   0.0000   0.5280  -0.5060
   0.0000  -0.5060   0.4853
 


   Common initialization

   Specie:     1
   1  indv=  1   ang. mom=  0
   2  indv=  2   ang. mom=  0
   3  indv=  3   ang. mom=  1
   4  indv=  3   ang. mom=  1
   5  indv=  3   ang. mom=  1
   6  indv=  4   ang. mom=  1
   7  indv=  4   ang. mom=  1
   8  indv=  4   ang. mom=  1
 
                        dion 
   0.3894   0.2818   0.0000   0.0000
   0.2818   0.2028   0.0000   0.0000
   0.0000   0.0000   0.4711   0.4028
   0.0000   0.0000   0.4028   0.3438

   Specie:     2
   1  indv=  1   ang. mom=  1
   2  indv=  1   ang. mom=  1
   3  indv=  1   ang. mom=  1
   4  indv=  2   ang. mom=  2
   5  indv=  2   ang. mom=  2
   6  indv=  2   ang. mom=  2
   7  indv=  2   ang. mom=  2
   8  indv=  2   ang. mom=  2
   9  indv=  3   ang. mom=  2
  10  indv=  3   ang. mom=  2
  11  indv=  3   ang. mom=  2
  12  indv=  3   ang. mom=  2
  13  indv=  3   ang. mom=  2
 
                        dion 
   0.0116   0.0000   0.0000
   0.0000  -1.4888   1.4112
   0.0000   1.4112  -1.3393

   Specie:     3
   1  indv=  1   ang. mom=  0
 
                        dion 
  10.8855

   Cell parameters from input file are used in electron mass preconditioning
   init_tpiba2=    0.06926403
 
   Short Legend and Physical Units in the Output
   ---------------------------------------------
   NFI    [int]          - step index
   EKINC  [HARTREE A.U.] - kinetic energy of the fictitious electronic dynamics
   TEMPH  [K]            - Temperature of the fictitious cell dynamics
   TEMP   [K]            - Ionic temperature
   ETOT   [HARTREE A.U.] - Scf total energy (Kohn-Sham hamiltonian)
   ENTHAL [HARTREE A.U.] - Enthalpy ( ETOT + P * V )
   ECONS  [HARTREE A.U.] - Enthalpy + kinetic energy of ions and cell
   ECONT  [HARTREE A.U.] - Constant of motion for the CP lagrangian
 
 Electronic velocities set to zero

   formf: eself=  5562.85116
   formf:     vps(g=0)=  -0.0000729     rhops(g=0)=  -0.0003057
   formf:     vps(g=0)=  -0.0000727     rhops(g=0)=  -0.0003050
   formf:     vps(g=0)=  -0.0000727     rhops(g=0)=  -0.0003050
   formf:     vps(g=0)=  -0.0000720     rhops(g=0)=  -0.0003028
   formf:     vps(g=0)=  -0.0000720     rhops(g=0)=  -0.0003028
   formf: sum_g vps(g)=   1.1729686 sum_g rhops(g)=  -4.3101249
   formf:     vps(g=0)=   0.0036178     rhops(g=0)=  -0.0005604
   formf:     vps(g=0)=   0.0035924     rhops(g=0)=  -0.0005591
   formf:     vps(g=0)=   0.0035924     rhops(g=0)=  -0.0005591
   formf:     vps(g=0)=   0.0035171     rhops(g=0)=  -0.0005552
   formf:     vps(g=0)=   0.0035171     rhops(g=0)=  -0.0005552
   formf: sum_g vps(g)=   9.1559870 sum_g rhops(g)=  -7.9018956
   formf:     vps(g=0)=   0.0008190     rhops(g=0)=  -0.0001019
   formf:     vps(g=0)=   0.0008121     rhops(g=0)=  -0.0001017
   formf:     vps(g=0)=   0.0008121     rhops(g=0)=  -0.0001017
   formf:     vps(g=0)=   0.0007914     rhops(g=0)=  -0.0001009
   formf:     vps(g=0)=   0.0007914     rhops(g=0)=  -0.0001009
   formf: sum_g vps(g)=   1.8172172 sum_g rhops(g)=  -1.4367083
   Delta V(G=0):   0.049659Ry,    1.351291eV
Initialize Berry phase electric field
 Additional found:           0
 Additional found:           0
 Additional found:           0
 Additional found:           0
 #not found, gtable:    2249.00000000000     
 #not found, gtabin:    2249.00000000000     
 WARNING setting to ZERO ions, electrons and cell velocities without 
 setting to ZERO all velocities could generate meaningles trajectories 
 
  nfi     ekinc              temph  tempp     etot                 enthal               econs                econt              vnhh    xnhh0   vnhp    xnhp0
      1    0.000000000408776    0.0    0.00   -2898.553655197803   -2898.553655197803   -2898.553655197803   -2898.553655197395   0.0000   0.0000   0.0000   0.0000
Elct. dipole 1   -9.047029  Ionic dipole 1    9.036582
      2    0.000000001349763    0.0    0.00   -2898.553655213550   -2898.553655213550   -2898.553655213550   -2898.553655212200   0.0000   0.0000   0.0000   0.0000
Elct. dipole 1   -9.047029  Ionic dipole 1    9.036582
      3    0.000000001808112    0.0    0.00   -2898.553655197077   -2898.553655197077   -2898.553655197077   -2898.553655195269   0.0000   0.0000   0.0000   0.0000
Elct. dipole 1   -9.047028  Ionic dipole 1    9.036582
      4    0.000000001320826    0.0    0.00   -2898.553655196429   -2898.553655196429   -2898.553655196429   -2898.553655195108   0.0000   0.0000   0.0000   0.0000
Elct. dipole 1   -9.047028  Ionic dipole 1    9.036582

   MAIN:          EKINC   (thr)          DETOT   (thr)       MAXFORCE   (thr)
   MAIN:   0.132083D-08  0.1D-04  0.648015D-09  0.1D-08  0.000000D+00  0.1D+11
   MAIN: convergence achieved for system relaxation

 * Physical Quantities at step:     5
     Pressure of Nuclei (GPa)             0.00000      5
     Pressure Total (GPa)             0.00091      5


                total energy =    -2898.55365519406 Hartree a.u.
              kinetic energy =     1316.41408 Hartree a.u.
        electrostatic energy =    -3924.24519 Hartree a.u.
                         esr =        0.00000 Hartree a.u.
                       eself =     5562.85116 Hartree a.u.
      pseudopotential energy =      261.76079 Hartree a.u.
  n-l pseudopotential energy =      193.28020 Hartree a.u.
 exchange-correlation energy =     -745.76353 Hartree a.u.
           average potential =        0.00000 Hartree a.u.



   Eigenvalues (eV), kp =   1 , spin =  1

  -12.74  -12.59  -12.51  -12.49  -12.39  -12.38  -12.37  -12.30  -12.28  -12.26
  -12.26  -12.25  -12.20  -12.20  -12.19  -12.14  -12.13  -12.08  -12.08  -12.07
  -12.03  -12.03  -12.00  -11.98  -11.98  -11.97  -11.97  -11.94  -11.89  -11.84
  -11.83  -11.83  -11.80  -11.79  -11.79  -11.76  -11.74  -11.74  -11.73  -11.70
  -11.69  -11.69  -11.66  -11.66  -11.66  -11.65  -11.64  -11.64  -11.63  -11.62
  -11.61  -11.60  -11.60  -11.59  -11.57  -11.56  -11.56  -11.55  -11.55  -11.54
  -11.54  -11.53  -11.53  -11.52  -11.52  -11.52  -11.51  -11.50  -11.49  -11.49
  -11.48  -11.48  -11.48  -11.47  -11.47  -11.46  -11.46  -11.46  -11.45  -11.44
  -11.44  -11.44  -11.44  -11.43  -11.43  -11.43  -11.43  -11.43  -11.42  -11.41
  -11.40  -11.39  -11.39  -11.39  -11.39  -11.39  -11.39  -11.38  -11.37  -11.37
  -11.37  -11.37  -11.36  -11.35  -11.35  -11.35  -11.34  -11.34  -11.33  -11.29
  -11.28  -11.28  -11.27  -11.26  -11.26  -11.25  -11.24  -11.24  -11.23  -11.23
  -11.22  -11.21  -11.21  -11.20  -11.20  -11.19  -11.18  -11.17  -11.17  -11.16
  -11.16  -11.16  -11.15  -11.15  -11.15  -11.14  -11.13  -11.12   -1.24   -0.79
   -0.78   -0.78   -0.77   -0.71   -0.63   -0.57   -0.57   -0.52   -0.52   -0.45
   -0.38   -0.37   -0.35   -0.33   -0.28   -0.25   -0.22   -0.19   -0.18   -0.17
   -0.17   -0.15   -0.14   -0.14   -0.13   -0.10   -0.08   -0.08   -0.06   -0.06
   -0.04   -0.03   -0.02   -0.01   -0.01   -0.00    0.00    0.00    0.02    0.03
    0.04    0.06    0.07    0.08    0.10    0.11    0.11    0.12    0.12    0.12
    0.13    0.13    0.13    0.16    0.16    0.17    0.21    0.21    0.22    0.24
    0.25    0.25    0.26    0.27    0.28    0.28    0.31    0.37    0.37    0.38
    0.39    0.39    0.40    0.40    0.43    0.43    0.44    0.47    0.48    0.48
    0.48    0.49    0.49    0.50    0.50    0.53    0.53    0.53    0.53    0.54
    0.54    0.55    0.56    0.56    0.57    0.57    0.58    0.59    0.60    0.61
    0.61    0.62    0.62    0.63    0.63    0.64    0.64    0.64    0.64    0.67
    0.67    0.68    0.68    0.69    0.72    0.72    0.72    0.74    0.76    0.76
    0.77    0.79    0.79    0.79    0.80    0.81    0.81    0.81    0.83    0.87
    0.88    0.89    0.90    0.91    0.92    0.92    0.94    0.94    0.95    0.95
    0.97    0.97    0.98    1.03    1.04    1.06    1.08    1.09    1.10    1.11
    1.13    1.13    1.14    1.16    1.17    1.20    1.23    1.26    1.26    1.32
    1.32    1.33    1.35    1.36    1.37    1.45    1.48    1.48    1.48    1.50
    1.51    1.53    1.54    1.55    1.57    1.58    1.58    1.59    1.63    1.63
    1.67    1.67    1.68    1.69    1.72    1.74    1.76    1.76    1.78    1.79
    1.79    1.79    1.82    1.83    1.83    1.86    1.86    1.87    1.87    1.89
    1.90    1.92    1.95    1.95    1.98    1.98    2.01    2.02    2.04    2.06
    2.11    2.13    2.14    2.16    2.17    2.17    2.18    2.18    2.19    2.20
    2.21    2.22    2.23    2.23    2.24    2.27    2.27    2.27    2.28    2.34
    2.34    2.34    2.35    2.37    2.37    2.37    2.38    2.41    2.41    2.43
    2.43    2.44    2.44    2.45    2.45    2.45    2.47    2.49    2.51    2.51
    2.51    2.52    2.53    2.53    2.54    2.54    2.54    2.55    2.55    2.56
    2.57    2.58    2.59    2.62    2.62    2.62    2.63    2.63    2.64    2.65
    2.66    2.66    2.67    2.67    2.67    2.68    2.68    2.68    2.69    2.69
    2.69    2.72    2.74    2.74    2.75    2.76    2.76    2.77    2.77    2.77
    2.79    2.80    2.82    2.82    2.83    2.85    2.86    2.87    2.87    2.90
    2.90    2.91    2.91    2.91    2.93    2.94    2.95    2.95    2.97    2.97
    2.98    3.00    3.00    3.01    3.01    3.01    3.01    3.02    3.02    3.04
    3.05    3.05    3.06    3.06    3.06    3.07    3.09    3.10    3.10    3.10
    3.10    3.10    3.11    3.12    3.13    3.13    3.13    3.15    3.15    3.16
    3.17    3.18    3.19    3.19    3.19    3.20    3.21    3.21    3.22    3.22
    3.23    3.23    3.24    3.24    3.24    3.25    3.25    3.26    3.26    3.26
    3.27    3.27    3.28    3.28    3.29    3.30    3.30    3.31    3.32    3.32
    3.32    3.33    3.33    3.33    3.34    3.34    3.36    3.37    3.38    3.38
    3.38    3.39    3.41    3.41    3.42    3.43    3.43    3.43    3.43    3.45
    3.46    3.47    3.47    3.48    3.49    3.49    3.49    3.50    3.51    3.52
    3.52    3.52    3.53    3.53    3.54    3.56    3.57    3.57    3.57    3.57
    3.57    3.58    3.60    3.61    3.61    3.63    3.63    3.64    3.64    3.65
    3.65    3.65    3.66    3.66    3.66    3.68    3.69    3.69    3.72    3.72
    3.73    3.75    3.75    3.76    3.77    3.79    3.80    3.80    3.80    3.80
    3.82    3.83    3.86    3.86    3.87    3.88    3.89    3.89    3.89    3.89
    3.90    3.90    3.92    3.94    3.94    3.94    3.97    3.98    4.00    4.03
    4.03    4.05    4.15    4.19    4.19    4.39    4.41    4.41    4.43    4.47
    4.55    4.56    4.57    4.78    6.05    6.05    6.23    6.64
 
 
   CELL_PARAMETERS
   24.54238993    0.00076119    0.00000017
    0.00076117   24.54229101    0.00000114
    0.00000023    0.00000151   32.45460222

   System Density [g/cm^3] :              3.9303364400


   System Volume [A.U.^3] :          19548.2661582366


   Center of mass square displacement (a.u.):   0.000000

   Total stress (GPa)
        0.00111089         0.00319794         0.00000018
        0.00319794         0.00103295         0.00000083
        0.00000018         0.00000083         0.00058756
   ATOMIC_POSITIONS
   Ag      0.21309885737963E+01     0.13898194019221E+02     0.18225933203933E+02
   Ag      0.56002791283705E+01     0.10428543495406E+02     0.18225914467043E+02
   Ag      0.67307526628088E+01     0.15028187183203E+02     0.18619673280325E+02
   Ag      0.10004594987662E+01     0.92984917122244E+01     0.18619379557263E+02
   Ag      0.21501441038105E+01     0.10447901488350E+02     0.14028949401806E+02
   Ag      0.21310172733061E+01     0.13898187606816E+02     0.98318664090142E+01
   Ag      0.56002627424822E+01     0.10428578039624E+02     0.98318590295649E+01
   Ag      0.67308162929754E+01     0.15028256122347E+02     0.94381620215474E+01
   Ag      0.69402878302625E+01     0.90901134194908E+01     0.14028866376414E+02
   Ag      0.79235524566334E+00     0.15237968229790E+02     0.14028880710755E+02
   Ag      0.55819392195086E+01     0.13879648668790E+02     0.14028891591806E+02
   Ag      0.10004100796930E+01     0.92984512044625E+01     0.94385552091597E+01
   Mg      0.22239669821905E+02     0.22394642264805E+02     0.26234631194219E+02
   Mg      0.22237123615295E+02     0.18335089887892E+02     0.30256192903193E+02
   Mg      0.18172054965203E+02     0.22400325351409E+02     0.30256181808777E+02
   Mg      0.18177811037468E+02     0.18332607101975E+02     0.26234660677237E+02
   Mg      0.22168516868870E+02     0.22440732487546E+02     0.18163739881314E+02
   Mg      0.22274957795635E+02     0.18297488835330E+02     0.22181874682223E+02
   Mg      0.18173798021642E+02     0.22398897752808E+02     0.22218623013696E+02
   Mg      0.18131932543194E+02     0.18404585899034E+02     0.18163774344269E+02
   Mg      0.22168519766809E+02     0.22440714471706E+02     0.98941179333674E+01
   Mg      0.21967918030385E+02     0.18604314502223E+02     0.14029058171316E+02
   Mg      0.18113288485619E+02     0.22459792771562E+02     0.14028906695392E+02
   Mg      0.18131949050539E+02     0.18404579448408E+02     0.98940846716616E+01
   Mg      0.22239699110324E+02     0.22394622078539E+02     0.18230987687694E+01
   Mg      0.22274977336479E+02     0.18297466692093E+02     0.58759827042586E+01
   Mg      0.18173812702300E+02     0.22398878872716E+02     0.58390119534782E+01
   Mg      0.18177828573933E+02     0.18332572536901E+02     0.18230703632087E+01
   Mg      0.22183938238798E+02     0.14233781463539E+02     0.26307994392041E+02
   Mg      0.22176280562328E+02     0.10096083815171E+02     0.30256212157329E+02
   Mg      0.18155027930364E+02     0.14231097363224E+02     0.30256190783785E+02
   Mg      0.18146837699014E+02     0.10094742773323E+02     0.26269876221369E+02
   Mg      0.21819884005406E+02     0.14188172713656E+02     0.18109497003415E+02
   Mg      0.22150040854252E+02     0.10143882893503E+02     0.22310003917353E+02
   Mg      0.18142144956875E+02     0.14234181469272E+02     0.22277661905049E+02
   Mg      0.17977412706919E+02     0.10017796209101E+02     0.18214220391632E+02
   Mg      0.21819888206705E+02     0.14188150488799E+02     0.99486250128646E+01
   Mg      0.21787723842786E+02     0.10138272184298E+02     0.14029095815832E+02
   Mg      0.17915023536042E+02     0.14328898200305E+02     0.14029023248213E+02
   Mg      0.17977422995206E+02     0.10017784081715E+02     0.98437769751999E+01
   Mg      0.22183918630301E+02     0.14233777696418E+02     0.17498554955373E+01
   Mg      0.22150041713087E+02     0.10143887825584E+02     0.57478721696732E+01
   Mg      0.18142156165759E+02     0.14234180461269E+02     0.57802434177976E+01
   Mg      0.18146831554355E+02     0.10094765006949E+02     0.17879614191484E+01
   Mg      0.22240041387668E+02     0.59961248809432E+01     0.26243040685434E+02
   Mg      0.22239020587021E+02     0.19223516766645E+01     0.30256195224393E+02
   Mg      0.18166292273974E+02     0.59951151697133E+01     0.30256194998363E+02
   Mg      0.18170365430633E+02     0.19263933875667E+01     0.26236607450079E+02
   Mg      0.22075639917064E+02     0.58318326353684E+01     0.18100760860303E+02
   Mg      0.22237535368054E+02     0.19168278987150E+01     0.22218335260337E+02
   Mg      0.18160657793004E+02     0.59935960716176E+01     0.22218345509307E+02
   Mg      0.18136206241826E+02     0.18922780985287E+01     0.18156114648329E+02
   Mg      0.22075653317536E+02     0.58318418417836E+01     0.99571860317090E+01
   Mg      0.22165102238233E+02     0.18887992107838E+01     0.14028961530948E+02
   Mg      0.18132709876839E+02     0.59211575421058E+01     0.14028962153794E+02
   Mg      0.18136207320000E+02     0.18922807445127E+01     0.99015773319425E+01
   Mg      0.22240056504899E+02     0.59961415685539E+01     0.18147254387543E+01
   Mg      0.22237548574264E+02     0.19168369579261E+01     0.58393962452297E+01
   Mg      0.18160662256517E+02     0.59936136395730E+01     0.58393878925164E+01
   Mg      0.18170371222018E+02     0.19264040775062E+01     0.18210923073434E+01
   Mg      0.14103801091989E+02     0.22401305660913E+02     0.26236632626232E+02
   Mg      0.14107786281583E+02     0.18332434942526E+02     0.30256196680557E+02
   Mg      0.10034925940803E+02     0.22405324134562E+02     0.30256196095687E+02
   Mg      0.10033892033120E+02     0.18331475973453E+02     0.26243133317900E+02
   Mg      0.14138341919941E+02     0.22435965144116E+02     0.18156167340483E+02
   Mg      0.14113572956346E+02     0.18334274435023E+02     0.22218439156591E+02
   Mg      0.10036693682512E+02     0.22411100031445E+02     0.22218446032511E+02
   Mg      0.10198536904120E+02     0.18496131552827E+02     0.18101057106761E+02
   Mg      0.14138334781501E+02     0.22435959714865E+02     0.99015283820906E+01
   Mg      0.14141652240101E+02     0.18407284455997E+02     0.14028961641529E+02
   Mg      0.10109604878253E+02     0.22439367204844E+02     0.14028960896100E+02
   Mg      0.10198526000897E+02     0.18496119673553E+02     0.99568972832175E+01
   Mg      0.14103787689100E+02     0.22401297455797E+02     0.18210675500163E+01
   Mg      0.14113563059619E+02     0.18334256348385E+02     0.58392962480153E+01
   Mg      0.10036671048730E+02     0.22411094641280E+02     0.58392883679420E+01
   Mg      0.10033874030456E+02     0.18331457746535E+02     0.18146380182072E+01
   Mg      0.14127148616715E+02     0.14232641708081E+02     0.26269920822964E+02
   Mg      0.14118916905322E+02     0.10096158481081E+02     0.30256187545055E+02
   Mg      0.10097463735215E+02     0.14231178944156E+02     0.30256210197317E+02
   Mg      0.10089826491736E+02     0.10093589476145E+02     0.26307965625194E+02
   Mg      0.14296639471513E+02     0.14310437315281E+02     0.18214190220776E+02
   Mg      0.14131869494811E+02     0.10093513154330E+02     0.22277673086981E+02
   Mg      0.10123922427960E+02     0.14183801370472E+02     0.22310069229858E+02
   Mg      0.10454015447224E+02     0.10140401773318E+02     0.18109471518044E+02
   Mg      0.14296627761962E+02     0.14310444750742E+02     0.98438097709184E+01
   Mg      0.14359295941966E+02     0.99995587452084E+01     0.14029025385448E+02
   Mg      0.10486624030026E+02     0.14190646935880E+02     0.14029097598352E+02
   Mg      0.10454013597526E+02     0.10140423074487E+02     0.99486500350044E+01
   Mg      0.14127155919908E+02     0.14232614641982E+02     0.17879141911001E+01
   Mg      0.14131857570612E+02     0.10093508342308E+02     0.57802286118101E+01
   Mg      0.10123931117111E+02     0.14183783026129E+02     0.57477895601557E+01
   Mg      0.10089846266476E+02     0.10093585258154E+02     0.17498746909470E+01
   Mg      0.14096263758660E+02     0.59949912265884E+01     0.26234642278324E+02
   Mg      0.14102055849192E+02     0.19273214694952E+01     0.30256178228762E+02
   Mg      0.10036731782602E+02     0.59924330782486E+01     0.30256188546046E+02
   Mg      0.10034316671178E+02     0.19330633464825E+01     0.26234665924874E+02
   Mg      0.14142217257574E+02     0.59237397775936E+01     0.18163756499939E+02
   Mg      0.14100536605024E+02     0.19290318213406E+01     0.22218631008080E+02
   Mg      0.99990583204815E+01     0.60302218696348E+01     0.22181898653240E+02
   Mg      0.10106111403220E+02     0.18871922338833E+01     0.18163789270609E+02
   Mg      0.14142199429029E+02     0.59237445288420E+01     0.98941020556836E+01
   Mg      0.14161362843041E+02     0.18686176612877E+01     0.14028905544300E+02
   Mg      0.10305990428980E+02     0.57233886307120E+01     0.14029057550863E+02
   Mg      0.10106104018899E+02     0.18872118169185E+01     0.98940669706388E+01
   Mg      0.14096241222326E+02     0.59950235046787E+01     0.18230827265076E+01
   Mg      0.14100511950269E+02     0.19290533263518E+01     0.58390010289017E+01
   Mg      0.99990367597752E+01     0.60302431086869E+01     0.58759577839412E+01
   Mg      0.10034281951962E+02     0.19330841879814E+01     0.18230583750630E+01
   Mg      0.59350360810450E+01     0.22424781411670E+02     0.26269914765248E+02
   Mg      0.59335404088628E+01     0.18395167706508E+02     0.30256210833525E+02
   Mg      0.17984206921415E+01     0.22416595218880E+02     0.30256190202683E+02
   Mg      0.17958965468376E+01     0.18387544818386E+02     0.26307958248248E+02
   Mg      0.60127439020164E+01     0.22594197401346E+02     0.18214179084927E+02
   Mg      0.58861246684860E+01     0.18421514487006E+02     0.22310038668833E+02
   Mg      0.17958048455321E+01     0.22429602730772E+02     0.22277668609261E+02
   Mg      0.18427440669498E+01     0.18751797300515E+02     0.18109432884189E+02
   Mg      0.60127514040122E+01     0.22594189573981E+02     0.98438153206970E+01
   Mg      0.58931468491313E+01     0.18784306967183E+02     0.14029093799535E+02
   Mg      0.17018673563853E+01     0.22656929456715E+02     0.14029025002988E+02
   Mg      0.18427623701356E+01     0.18751797395909E+02     0.99486872542779E+01
   Mg      0.59350103305504E+01     0.22424789218725E+02     0.17879188311662E+01
   Mg      0.58861058362970E+01     0.18421526331302E+02     0.57478208902564E+01
   Mg      0.17957996303504E+01     0.22429592469406E+02     0.57802337127834E+01
   Mg      0.17958943914986E+01     0.18387560676630E+02     0.17498879834220E+01
   Mg      0.59962322623616E+01     0.14293954014332E+02     0.26465853967354E+02
   Mg      0.59692580432670E+01     0.10059552118760E+02     0.30256251090109E+02
   Mg      0.17619273976821E+01     0.14266944578259E+02     0.30256256144036E+02
   Mg      0.17349537390295E+01     0.10032588757019E+02     0.26465831947703E+02
   Mg      0.59023260882657E+01     0.10126692903512E+02     0.22757980998251E+02
   Mg      0.18289646988243E+01     0.14199933881694E+02     0.22757989537678E+02
   Mg      0.59962385755066E+01     0.14293957912970E+02     0.15921074952682E+01
   Mg      0.59023648349843E+01     0.10126646203189E+02     0.52998883097524E+01
   Mg      0.18289267086209E+01     0.14199965681736E+02     0.52998951777099E+01
   Mg      0.17349471038423E+01     0.10032578929983E+02     0.15921400094049E+01
   Mg      0.59353863066781E+01     0.59391819838568E+01     0.26307987178747E+02
   Mg      0.59327340824719E+01     0.19103000323512E+01     0.30256185447098E+02
   Mg      0.17976184927259E+01     0.59315358851908E+01     0.30256209822694E+02
   Mg      0.17962473992824E+01     0.19021788294268E+01     0.26269865670586E+02
   Mg      0.58897077506080E+01     0.55751904149059E+01     0.18109482125917E+02
   Mg      0.59357819451774E+01     0.18974385337945E+01     0.22277665673158E+02
   Mg      0.18454272870890E+01     0.59054820543341E+01     0.22309962490147E+02
   Mg      0.17193640319307E+01     0.17329624760703E+01     0.18214205216184E+02
   Mg      0.58896816931649E+01     0.55751975708019E+01     0.99486355093468E+01
   Mg      0.60304557220997E+01     0.16704992162382E+01     0.14029020477650E+02
   Mg      0.18395980141461E+01     0.55431390189740E+01     0.14029094914104E+02
   Mg      0.17193508671263E+01     0.17329723378176E+01     0.98437874054613E+01
   Mg      0.59353858728644E+01     0.59391594343048E+01     0.17498516810503E+01
   Mg      0.59357808052315E+01     0.18974530227124E+01     0.57802326675874E+01
   Mg      0.18454329788552E+01     0.59054857445423E+01     0.57479103295742E+01
   Mg      0.17962712626024E+01     0.19021739591638E+01     0.17879689871168E+01
   O       0.18170960763279E+02     0.18327643368232E+02     0.30256273076340E+02
   O       0.18172558465991E+02     0.22399841933350E+02     0.26237523504132E+02
   O       0.22249374121516E+02     0.18322941942089E+02     0.26241981934089E+02
   O       0.22244504448396E+02     0.22401398469723E+02     0.30256269256925E+02
   O       0.18178193880730E+02     0.18334574242526E+02     0.22209186011619E+02
   O       0.18149044697567E+02     0.22424269863640E+02     0.18142991484156E+02
   O       0.22174001587542E+02     0.18398652155825E+02     0.18093797608364E+02
   O       0.22238034665331E+02     0.22394385098953E+02     0.22209057893466E+02
   O       0.18084904132479E+02     0.18446586497127E+02     0.14029030405755E+02
   O       0.18149040902665E+02     0.22424261186005E+02     0.99146486237468E+01
   O       0.22173998327666E+02     0.18398657983022E+02     0.99643632219560E+01
   O       0.22127149414800E+02     0.22487488224909E+02     0.14029032851289E+02
   O       0.18178237797802E+02     0.18334500905308E+02     0.58485058372235E+01
   O       0.18172576916265E+02     0.22399820158919E+02     0.18201996985390E+01
   O       0.22249425641702E+02     0.18322882996050E+02     0.18157909046820E+01
   O       0.22238094692078E+02     0.22394342778940E+02     0.58486383699039E+01
   O       0.18144187984848E+02     0.10100007609576E+02     0.30256277664379E+02
   O       0.18160896528766E+02     0.14229106678189E+02     0.26267535062816E+02
   O       0.22184366913935E+02     0.10101779460176E+02     0.26305939246553E+02
   O       0.22199416416304E+02     0.14225964658999E+02     0.30256285737802E+02
   O       0.18128619849991E+02     0.10096545907068E+02     0.22283061128196E+02
   O       0.18044948527232E+02     0.14316039010182E+02     0.18231261274891E+02
   O       0.21635944661063E+02     0.10152429912466E+02     0.18107559526361E+02
   O       0.22194665188517E+02     0.14218196584858E+02     0.22277882630096E+02
   O       0.18024745272102E+02     0.99868152029692E+01     0.14029158647509E+02
   O       0.18044944147170E+02     0.14316064011323E+02     0.98270016260320E+01
   O       0.21635940072938E+02     0.10152443357251E+02     0.99507190704210E+01
   O       0.21501866746400E+02     0.14130626793808E+02     0.14029234481012E+02
   O       0.18128614487055E+02     0.10096577798924E+02     0.57750317249488E+01
   O       0.18160891805724E+02     0.14229063325868E+02     0.17902457294770E+01
   O       0.22184380945563E+02     0.10101814879697E+02     0.17518739205778E+01
   O       0.22194634543042E+02     0.14218173136066E+02     0.57802063887802E+01
   O       0.18170469418094E+02     0.19264504969737E+01     0.30256268103770E+02
   O       0.18170559278378E+02     0.59974769707289E+01     0.26235808861901E+02
   O       0.22241368952911E+02     0.19265729147447E+01     0.26235791299945E+02
   O       0.22240889585813E+02     0.59969980942744E+01     0.30256277507140E+02
   O       0.18167777299814E+02     0.19237625351843E+01     0.22211008239543E+02
   O       0.18119135410024E+02     0.59081915602030E+01     0.18143884713299E+02
   O       0.22152274547208E+02     0.18753957094346E+01     0.18143879833944E+02
   O       0.22250672104272E+02     0.60069622245375E+01     0.22180295630245E+02
   O       0.18151946500710E+02     0.19079226549788E+01     0.14028957981837E+02
   O       0.18119142015785E+02     0.59081924437889E+01     0.99138426338242E+01
   O       0.22152272186103E+02     0.18753949524274E+01     0.99138453733787E+01
   O       0.22188927616753E+02     0.59450689563583E+01     0.14029082306122E+02
   O       0.18167781626305E+02     0.19237797006238E+01     0.58465767818321E+01
   O       0.18170571722259E+02     0.59975415993397E+01     0.18219774322272E+01
   O       0.22241430287588E+02     0.19265940768507E+01     0.18219932798881E+01
   O       0.22250721745783E+02     0.60070178801196E+01     0.58774753961909E+01
   O       0.10033031382201E+02     0.18330516425296E+02     0.30256288923003E+02
   O       0.10032627347973E+02     0.22401017713052E+02     0.26235905737721E+02
   O       0.14103478978717E+02     0.18330061946451E+02     0.26235897625958E+02
   O       0.14103596573711E+02     0.22401094077831E+02     0.30256262887988E+02
   O       0.10023588548797E+02     0.18321065373592E+02     0.22180718345467E+02
   O       0.10122488904065E+02     0.22452870358289E+02     0.18144064114452E+02
   O       0.14155330319498E+02     0.18420175725299E+02     0.18144039450512E+02
   O       0.14106652844192E+02     0.22404185344728E+02     0.22211089533264E+02
   O       0.10085119388381E+02     0.18382789405828E+02     0.14029074007441E+02
   O       0.10122480405978E+02     0.22452858185471E+02     0.99136620147410E+01
   O       0.14155320828265E+02     0.18420173120193E+02     0.99136874322809E+01
   O       0.14122755262026E+02     0.22420538340214E+02     0.14028949803683E+02
   O       0.10023521292173E+02     0.18321006268132E+02     0.58770587530262E+01
   O       0.10032561111515E+02     0.22401007048723E+02     0.18218846087659E+01
   O       0.14103461702577E+02     0.18329994089102E+02     0.18218913324201E+01
   O       0.14106631784301E+02     0.22404169348156E+02     0.58464971915892E+01
   O       0.10073982333277E+02     0.10101109597576E+02     0.30256277115428E+02
   O       0.10089162702360E+02     0.14225359164203E+02     0.26305984045245E+02
   O       0.14113055766870E+02     0.10098046983950E+02     0.26267487083819E+02
   O       0.14129896220440E+02     0.14226983212887E+02     0.30256274512658E+02
   O       0.10078753300281E+02     0.10109278763733E+02     0.22277786992119E+02
   O       0.10638059959609E+02     0.14176681488451E+02     0.18107999185871E+02
   O       0.14228902444050E+02     0.10012739658851E+02     0.18231353910518E+02
   O       0.14145687958457E+02     0.14230719260409E+02     0.22283250645068E+02
   O       0.10772768062173E+02     0.10199041254762E+02     0.14029241338300E+02
   O       0.10638062211587E+02     0.14176665771752E+02     0.99502967585575E+01
   O       0.14228906477393E+02     0.10012719878745E+02     0.98269038926945E+01
   O       0.14249517458723E+02     0.14342029047266E+02     0.14029162452098E+02
   O       0.10078788430571E+02     0.10109293628136E+02     0.57802918243085E+01
   O       0.10089151786008E+02     0.14225315892218E+02     0.17518250695553E+01
   O       0.14113058470444E+02     0.10098081488863E+02     0.17902894709307E+01
   O       0.14145693149611E+02     0.14230675995615E+02     0.57748381479300E+01
   O       0.10029459602439E+02     0.19261621832908E+01     0.30256262674300E+02
   O       0.10024656632544E+02     0.60047573595939E+01     0.26241995195877E+02
   O       0.14101567097590E+02     0.19277697152355E+01     0.26237534511068E+02
   O       0.14103059411588E+02     0.59999623154491E+01     0.30256262808502E+02
   O       0.10036307818857E+02     0.19333374729017E+01     0.22209222961518E+02
   O       0.10100031090616E+02     0.59291594546522E+01     0.18093810698103E+02
   O       0.14125745476856E+02     0.19042524670642E+01     0.18142995582577E+02
   O       0.14095825796746E+02     0.59933122443697E+01     0.22209086665247E+02
   O       0.10148015966835E+02     0.18404348627038E+01     0.14029023999768E+02
   O       0.10100036858817E+02     0.59291596645917E+01     0.99643471635509E+01
   O       0.14125741153700E+02     0.19042585172971E+01     0.99146404619855E+01
   O       0.14189206669694E+02     0.58823657914794E+01     0.14029035211087E+02
   O       0.10036228369220E+02     0.19333905658348E+01     0.58484689508116E+01
   O       0.10024605769448E+02     0.60048039932729E+01     0.18157706734129E+01
   O       0.14101536657847E+02     0.19277962902005E+01     0.18201806124776E+01
   O       0.14095771871744E+02     0.59933789948679E+01     0.58486127756972E+01
   O       0.18033441445126E+01     0.18371717714217E+02     0.30256280256501E+02
   O       0.18002868934926E+01     0.22410839942334E+02     0.26267499675370E+02
   O       0.59277540099501E+01     0.18386966903012E+02     0.26305986259506E+02
   O       0.59294140262281E+01     0.22427596701001E+02     0.30256273856004E+02
   O       0.18114854085145E+01     0.18376503785952E+02     0.22277803266023E+02
   O       0.17151371270772E+01     0.22526686787254E+02     0.18231337889414E+02
   O       0.58791726786201E+01     0.18935504474901E+02     0.18108048472882E+02
   O       0.59330708062509E+01     0.22443283395841E+02     0.22283241644095E+02
   O       0.19017607881058E+01     0.19070367188518E+02     0.14029236312334E+02
   O       0.17151125619760E+01     0.22526690224890E+02     0.98269100187781E+01
   O       0.58791476347990E+01     0.18935513226741E+02     0.99502364441213E+01
   O       0.60445260738353E+01     0.22547272634187E+02     0.14029163345365E+02
   O       0.18114957737499E+01     0.18376535759518E+02     0.57802717439986E+01
   O       0.18003309551728E+01     0.22410841364009E+02     0.17902813182360E+01
   O       0.59277128579644E+01     0.18386951104309E+02     0.17518246554176E+01
   O       0.59330295208884E+01     0.22443291829175E+02     0.57748460023382E+01
   O       0.17756227875913E+01     0.10073151026319E+02     0.30256315153212E+02
   O       0.17565811063040E+01     0.14272352184662E+02     0.26468153768788E+02
   O       0.59746378136858E+01     0.10054044749836E+02     0.26468151141001E+02
   O       0.59553722866239E+01     0.14253203212486E+02     0.30256312849298E+02
   O       0.17967515555117E+01     0.10094432068007E+02     0.22734748646778E+02
   O       0.59340589301240E+01     0.14231779448117E+02     0.22734817524736E+02
   O       0.17967705022973E+01     0.10094439875396E+02     0.53233509414840E+01
   O       0.17565826339719E+01     0.14272344761973E+02     0.15897796677495E+01
   O       0.59746426565071E+01     0.10054034693963E+02     0.15897694342416E+01
   O       0.59340326206125E+01     0.14231744718439E+02     0.53232547286602E+01
   O       0.18014747897597E+01     0.18994806874056E+01     0.30256276613845E+02
   O       0.18032379067697E+01     0.59395710214816E+01     0.26305932144302E+02
   O       0.59307749496518E+01     0.19160934823972E+01     0.26267528719566E+02
   O       0.59276241675094E+01     0.59546094137688E+01     0.30256278575017E+02
   O       0.17980707418995E+01     0.18840817885185E+01     0.22283056108904E+02
   O       0.18538420311721E+01     0.53916377317704E+01     0.18107648433523E+02
   O       0.60175308069180E+01     0.18002582648294E+01     0.18231266352394E+02
   O       0.59198772022164E+01     0.59499322185786E+01     0.22277902251283E+02
   O       0.16881622625583E+01     0.17801016615393E+01     0.14029155993095E+02
   O       0.18538443269316E+01     0.53916338846256E+01     0.99506277401853E+01
   O       0.60175526309251E+01     0.18002576534159E+01     0.98269883113247E+01
   O       0.58316614724570E+01     0.52573707195764E+01     0.14029235238854E+02
   O       0.17981037036732E+01     0.18840782558701E+01     0.57750353526158E+01
   O       0.18032791446342E+01     0.59395830538126E+01     0.17518745610712E+01
   O       0.59307360506708E+01     0.19160893157877E+01     0.17902384596911E+01
   O       0.59198564568835E+01     0.59498999964024E+01     0.57801763369089E+01
 
   ATOMIC_VELOCITIES
   Ag     -0.37248440073059E-07     0.12805163439525E-07    -0.40213675423349E-06
   Ag      0.17968039515657E-08    -0.39048556047015E-07    -0.39944184511608E-06
   Ag     -0.91060219444108E-07    -0.96325005589581E-07    -0.33565105008695E-07
   Ag      0.54728856791549E-07     0.68109923100494E-07    -0.48535008611864E-07
   Ag      0.13208567417950E-06     0.14263383046144E-06     0.62660740944235E-08
   Ag     -0.37864925256096E-07     0.12839278044808E-07     0.41310986465717E-06
   Ag      0.21839233585169E-08    -0.39865127547655E-07     0.41309673798559E-06
   Ag     -0.91853847445459E-07    -0.96574704178354E-07     0.42175867647607E-07
   Ag      0.75411990312995E-06    -0.75268732609845E-06     0.78269429801681E-08
   Ag     -0.74843962653509E-06     0.77021119085724E-06     0.55544501597907E-08
   Ag     -0.12777800175638E-06    -0.12631998465974E-06     0.44642345321317E-08
   Ag      0.54892060833404E-07     0.68277551598719E-07     0.61356892702459E-07
   Mg      0.61594200141549E-07    -0.10162127270006E-06     0.23456735154793E-06
   Mg      0.11637116876278E-06    -0.12894206878715E-06     0.24955603019145E-08
   Mg      0.56299221035501E-07    -0.63422765457938E-07    -0.57745801315185E-09
   Mg      0.94989416359338E-07    -0.67757939074738E-07     0.23549996012351E-06
   Mg     -0.60513338812509E-07    -0.71681506068690E-07     0.37436962380473E-06
   Mg      0.76079789449221E-07    -0.75371053399632E-07     0.13621999265001E-06
   Mg      0.14566336048990E-07    -0.98557946594630E-08     0.49765978289976E-06
   Mg      0.70638681782791E-07     0.75940808792538E-07     0.37767785238283E-06
   Mg     -0.62455946051675E-07    -0.71062130701352E-07    -0.36128616747889E-06
   Mg     -0.39013810112715E-06     0.38134123478940E-06     0.63346952524227E-08
   Mg     -0.67374106693125E-07     0.83875503888316E-07     0.95922997899026E-08
   Mg      0.69626711152871E-07     0.77141820790124E-07    -0.36485763694834E-06
   Mg      0.60296221189822E-07    -0.10106237358780E-06    -0.23075831474718E-06
   Mg      0.74211334346446E-07    -0.73774869661341E-07    -0.12737634682950E-06
   Mg      0.13019334163899E-07    -0.88527675671969E-08    -0.49076693568922E-06
   Mg      0.94433745390106E-07    -0.66537676247102E-07    -0.23164784775916E-06
   Mg      0.90353803307039E-07    -0.83486689972780E-07     0.45105470472780E-07
   Mg      0.48133461277381E-07    -0.67692595756441E-08     0.47930261413651E-08
   Mg      0.66390340565414E-07    -0.64161707279270E-07     0.35651387456008E-08
   Mg     -0.25436557752043E-07    -0.79744715969799E-08     0.16513193104993E-06
   Mg     -0.30665841295281E-07    -0.50769631838659E-06     0.10596851869841E-06
   Mg     -0.76485772455726E-07    -0.20076352513787E-06     0.18320677682060E-06
   Mg      0.31369422033224E-07    -0.31567878372369E-07     0.23343669624628E-06
   Mg     -0.14290417389326E-06    -0.28962688444119E-06     0.18058136363340E-06
   Mg     -0.31432001680462E-07    -0.50767549716148E-06    -0.95010940888954E-07
   Mg     -0.18086682126734E-06    -0.89885494986077E-06     0.50497463490824E-08
   Mg      0.93047686613304E-07     0.15426226822592E-06     0.72175652409476E-08
   Mg     -0.14441263064959E-06    -0.29127163047967E-06    -0.16750591196147E-06
   Mg      0.89493831685830E-07    -0.83085775126953E-07    -0.35870862360462E-07
   Mg     -0.78445491795740E-07    -0.20238327324210E-06    -0.17278991073511E-06
   Mg      0.30728093279611E-07    -0.30987388129048E-07    -0.22302815725211E-06
   Mg     -0.26353777241476E-07    -0.89632265508639E-08    -0.15681417343328E-06
   Mg     -0.32612096561268E-07    -0.35813846443408E-07     0.21719192965868E-06
   Mg      0.43031757232071E-07    -0.44827040671710E-07     0.92621503086652E-09
   Mg     -0.42423406406380E-07     0.36880840651258E-07     0.90871775417204E-09
   Mg     -0.16933393017288E-07    -0.20651267843539E-07     0.33784245941807E-06
   Mg     -0.17433506301130E-06    -0.17161705856642E-06     0.45996900709786E-06
   Mg     -0.92399020141785E-07    -0.10277613323597E-06     0.42173230942913E-06
   Mg     -0.10397323231362E-06    -0.94128322419236E-07     0.42338519625450E-06
   Mg     -0.93802782430246E-07    -0.92504898642971E-07     0.45921395596589E-06
   Mg     -0.17583824413974E-06    -0.17238324541025E-06    -0.44955132002735E-06
   Mg     -0.31062070475416E-06    -0.18602048409618E-06     0.83453482971411E-08
   Mg     -0.18417187073018E-06    -0.30351378317600E-06     0.84971211739563E-08
   Mg     -0.94883666125456E-07    -0.93101031974864E-07    -0.44398573514860E-06
   Mg     -0.34155710759297E-07    -0.37214168358953E-07    -0.21184492127239E-06
   Mg     -0.94613011580413E-07    -0.10348877424448E-06    -0.41465147942860E-06
   Mg     -0.10524550934178E-06    -0.96286554464353E-07    -0.41621616790151E-06
   Mg     -0.17585521627096E-07    -0.21254373619417E-07    -0.33694433490561E-06
   Mg      0.16994115157317E-07     0.13747701838947E-07     0.33934286064370E-06
   Mg      0.35838844905466E-07    -0.51067447594778E-07     0.10084330294833E-08
   Mg     -0.48380517323840E-07     0.32916095561733E-07     0.68353715634486E-09
   Mg      0.27079065666509E-07     0.25434715109667E-07     0.22212867336643E-06
   Mg      0.10562646545612E-06     0.10508748558872E-06     0.45975009955341E-06
   Mg      0.10228107740426E-06     0.96531223846449E-07     0.42581622462256E-06
   Mg      0.98774029960175E-07     0.10047722162758E-06     0.42484321905190E-06
   Mg      0.16704896946227E-06     0.16773475618420E-06     0.46538048833072E-06
   Mg      0.10545439666310E-06     0.10545892908155E-06    -0.44508816872761E-06
   Mg      0.18920486948135E-06     0.32610254041878E-06     0.79013671035521E-08
   Mg      0.33101136680841E-06     0.19714880700676E-06     0.80770031656427E-08
   Mg      0.16719905406344E-06     0.16817160597285E-06    -0.45542673091809E-06
   Mg      0.17406077900696E-07     0.14408841514707E-07    -0.33868452639804E-06
   Mg      0.10263332963114E-06     0.98189777344860E-07    -0.41904221646263E-06
   Mg      0.10009544503787E-06     0.10114176221908E-06    -0.41830385879081E-06
   Mg      0.28219675431076E-07     0.26772974462679E-07    -0.21717838013638E-06
   Mg      0.15091875922977E-07    -0.49508383237042E-08     0.16634470032138E-06
   Mg     -0.79111786571988E-07     0.45704229433075E-07     0.36127729704771E-08
   Mg     -0.60112181289964E-07    -0.11454582631849E-07     0.45768862329238E-08
   Mg     -0.10219779001751E-06     0.69835116716286E-07     0.45932222699092E-07
   Mg      0.13214130850678E-06     0.30431470313233E-06     0.18207136329423E-06
   Mg     -0.40445050817132E-07     0.31960205603853E-07     0.23341740255543E-06
   Mg      0.67683903855686E-07     0.20190874111712E-06     0.18835508859359E-06
   Mg      0.15561318503512E-07     0.52889303777197E-06     0.10716180805351E-06
   Mg      0.13271507620541E-06     0.30560215585765E-06    -0.16948586506617E-06
   Mg     -0.93411962381504E-07    -0.13002014308326E-06     0.74774565146216E-08
   Mg      0.17972258537632E-06     0.91969307252195E-06     0.51110770956080E-08
   Mg      0.15350266499134E-07     0.52865248470740E-06    -0.95360376484586E-07
   Mg      0.15697450528863E-07    -0.43854263695493E-08    -0.15820343538011E-06
   Mg     -0.40658947904867E-07     0.30767766403550E-07    -0.22293654418795E-06
   Mg      0.69204310464765E-07     0.20266956607306E-06    -0.17894703454844E-06
   Mg     -0.10173004440576E-06     0.69044533972853E-07    -0.36921786950434E-07
   Mg     -0.10130505247040E-06     0.57313398682748E-07     0.23537148912601E-06
   Mg     -0.60610198971146E-07     0.52044674085010E-07    -0.61760830961035E-09
   Mg     -0.12772884467413E-06     0.11321836947460E-06     0.22803039320772E-08
   Mg     -0.65480371504145E-07     0.91404113096211E-07     0.23526978823640E-06
   Mg     -0.70868404599631E-07    -0.58878942772396E-07     0.37587841753920E-06
   Mg     -0.86876102764413E-08     0.12018043615548E-07     0.49807452748110E-06
   Mg     -0.76227030728168E-07     0.72916689811185E-07     0.13714935065509E-06
   Mg      0.77357613162968E-07     0.74973231040044E-07     0.37692620164685E-06
   Mg     -0.70699049579844E-07    -0.60326765310107E-07    -0.36266867745712E-06
   Mg      0.84830611334273E-07    -0.62161832029373E-07     0.96201631408541E-08
   Mg      0.39596204494219E-06    -0.36746951499328E-06     0.64932969466043E-08
   Mg      0.78271159275927E-07     0.74385250508037E-07    -0.36377987886115E-06
   Mg     -0.10092178569105E-06     0.55990042501246E-07    -0.23165359335667E-06
   Mg     -0.80347967217374E-08     0.10863962969134E-07    -0.49117441428369E-06
   Mg     -0.74820952679661E-07     0.71134513566101E-07    -0.12824496253917E-06
   Mg     -0.64596396256944E-07     0.90930663115974E-07    -0.23181496493359E-06
   Mg     -0.27390576116492E-08     0.13989615423365E-07     0.16498483286672E-06
   Mg     -0.10514458487061E-07    -0.60290323501048E-07     0.44684457295728E-08
   Mg      0.49241379572706E-07    -0.79483671087006E-07     0.34372360329536E-08
   Mg      0.71638442408406E-07    -0.10209174416243E-06     0.44696983283042E-07
   Mg      0.30880117198292E-06     0.13472677000272E-06     0.17879271046300E-06
   Mg      0.20271404915717E-06     0.67296608749855E-07     0.18649589988459E-06
   Mg      0.33688206966426E-07    -0.38069667726081E-07     0.23104357250362E-06
   Mg      0.53864963703265E-06     0.21647986711013E-07     0.10310042260659E-06
   Mg      0.30994122945216E-06     0.13563644741851E-06    -0.16621899216114E-06
   Mg      0.93944629732564E-06     0.18455254732573E-06     0.52309679854536E-08
   Mg     -0.13739446042638E-06    -0.91979001709423E-07     0.74102148277087E-08
   Mg      0.53837686290719E-06     0.22023100729345E-07    -0.91695870778960E-07
   Mg     -0.23302586281545E-08     0.14750758643035E-07    -0.15739130690451E-06
   Mg      0.20334842817004E-06     0.69072810507853E-07    -0.17752168944451E-06
   Mg      0.32347694055663E-07    -0.37792284375212E-07    -0.22082945533749E-06
   Mg      0.70801129915500E-07    -0.10152025915234E-06    -0.35808916904667E-07
   Mg     -0.38462682951727E-07    -0.38167793206633E-07    -0.27086754778296E-07
   Mg     -0.79366145518456E-07     0.61133462097454E-07     0.52184060921141E-08
   Mg      0.62476940676030E-07    -0.80792914971366E-07     0.50876150684992E-08
   Mg      0.25815545424241E-07     0.22987557955725E-07    -0.31414287017268E-07
   Mg     -0.32044343169947E-07     0.27298638821186E-07    -0.20127970703442E-06
   Mg      0.27836035611466E-07    -0.35345575308314E-07    -0.20204511724872E-06
   Mg     -0.37971817209524E-07    -0.37907287715361E-07     0.37387881901759E-07
   Mg     -0.31655913091544E-07     0.26504944328056E-07     0.21293746508905E-06
   Mg      0.27270576598492E-07    -0.35215174956778E-07     0.21261732907753E-06
   Mg      0.25257954370348E-07     0.22336237007882E-07     0.42756823002391E-07
   Mg     -0.81119971500416E-07     0.88233812645995E-07     0.44386007335633E-07
   Mg     -0.60333166813592E-07     0.64206056454080E-07     0.32834226675841E-08
   Mg     -0.21072722847784E-08     0.45640604815786E-07     0.46954914310552E-08
   Mg     -0.29444561701610E-08    -0.25753643668598E-07     0.16331114549359E-06
   Mg     -0.51703092162252E-06    -0.29204197429910E-07     0.10352090053901E-06
   Mg     -0.29485833350159E-07     0.31030010694724E-07     0.23153921025897E-06
   Mg     -0.19959005127639E-06    -0.73322384189729E-07     0.18029159240715E-06
   Mg     -0.29318552619161E-06    -0.13797197429957E-06     0.17674945611351E-06
   Mg     -0.51689223409428E-06    -0.29603268669352E-07    -0.92175031273266E-07
   Mg      0.16038907591410E-06     0.10019070364892E-06     0.72981272324444E-08
   Mg     -0.92012060440701E-06    -0.17597795961362E-06     0.50106856257276E-08
   Mg     -0.29485970186465E-06    -0.13899510088507E-06    -0.16385732560466E-06
   Mg     -0.80687300997548E-07     0.87606902058800E-07    -0.35315375253875E-07
   Mg     -0.29114683604383E-07     0.30791011940639E-07    -0.22121116345615E-06
   Mg     -0.20106658437756E-06    -0.74822154554685E-07    -0.17001837112908E-06
   Mg     -0.37081862110399E-08    -0.26361955769312E-07    -0.15530809102851E-06
   O       0.95692697530278E-07    -0.98621423876893E-07     0.70065447823752E-09
   O       0.46947695916908E-07    -0.50949386463329E-07     0.34605321107173E-06
   O       0.99822443173145E-07    -0.10837923456963E-06     0.12480066913384E-06
   O       0.87636522628558E-07    -0.10738012952424E-06     0.63444973124272E-09
   O       0.83548012135075E-07     0.25309766321654E-07     0.37339408697094E-06
   O      -0.10623811373228E-07     0.24292953198568E-07     0.37007340731224E-06
   O      -0.32496407766466E-07     0.37997078741530E-07    -0.49463829398975E-07
   O      -0.23713014620300E-07    -0.85752855455819E-07     0.37164566695136E-06
   O       0.82213538754679E-07     0.54971005286054E-07     0.82808828457813E-08
   O      -0.12650983500932E-07     0.25072633116339E-07    -0.35323515136124E-06
   O      -0.34278213316876E-07     0.39621894877803E-07     0.61070910857818E-07
   O      -0.39011946854006E-07    -0.86894713788615E-07     0.83397031601687E-08
   O       0.82276123925378E-07     0.28096371277421E-07    -0.36698997227327E-06
   O       0.46026852838311E-07    -0.49915475474222E-07    -0.34861326549806E-06
   O       0.98650788081059E-07    -0.10729002587179E-06    -0.12011908477782E-06
   O      -0.27221130125732E-07    -0.84726353682361E-07    -0.36434548591644E-06
   O      -0.46067733706870E-08     0.11329639459166E-07     0.33593251385457E-08
   O       0.57829860304760E-07    -0.51112747906163E-07     0.15761329848996E-06
   O       0.94477477530660E-08    -0.41150314358909E-07     0.99420004403235E-07
   O       0.11747553015097E-06    -0.84006548529255E-07     0.44726767231274E-08
   O      -0.95621141666131E-07    -0.80768661584408E-07     0.25207810651693E-06
   O       0.68142348382350E-07     0.61316780086220E-07     0.18874016514326E-06
   O      -0.16696734961650E-06    -0.67448713114590E-06     0.37099672501627E-06
   O      -0.20436892656729E-07    -0.10184042590713E-06     0.69061140556509E-07
   O      -0.17592964896450E-06    -0.64049026884656E-06     0.66646475705709E-08
   O       0.68084211097197E-07     0.62637341102176E-07    -0.17544566093261E-06
   O      -0.16854141026432E-06    -0.67643589781786E-06    -0.36659919439186E-06
   O      -0.80741728357033E-08    -0.16063948441703E-05     0.53824780926547E-08
   O      -0.98182360309343E-07    -0.83152051208723E-07    -0.24143918503536E-06
   O       0.57566070252521E-07    -0.51199698480252E-07    -0.14981518268503E-06
   O       0.82043775268137E-08    -0.41166827809049E-07    -0.89109567541273E-07
   O      -0.22371270758036E-07    -0.10082127992399E-06    -0.57960260404134E-07
   O       0.34124621016473E-08    -0.13718811991399E-08    -0.13417463810620E-08
   O      -0.69122996221319E-07     0.50413523455558E-09     0.28188358108072E-06
   O       0.70805471892069E-08    -0.70452637803286E-07     0.28043591521889E-06
   O       0.10198933929067E-07     0.57863596264693E-08     0.24541773622736E-08
   O      -0.76257487975715E-07    -0.77174644301271E-07     0.55356624033034E-06
   O      -0.18594291658385E-06    -0.26291883014848E-06     0.37997089073532E-06
   O      -0.26838833537844E-06    -0.18432862529441E-06     0.37899999446413E-06
   O      -0.17647379476693E-06    -0.17310140693160E-06     0.44220975197836E-06
   O      -0.11714594766232E-06    -0.11573525674790E-06     0.11363980345692E-07
   O      -0.18654450294232E-06    -0.26569745304684E-06    -0.36637917685746E-06
   O      -0.27041775895338E-06    -0.18420328678011E-06    -0.36710374298453E-06
   O      -0.28454660450806E-06    -0.28160667707606E-06     0.71854681894485E-08
   O      -0.78007750102033E-07    -0.78939538412542E-07    -0.54701868897488E-06
   O      -0.70814047511380E-07    -0.83815243707438E-09    -0.28141342815858E-06
   O       0.61591807756811E-08    -0.71529731701341E-07    -0.28040075026732E-06
   O      -0.18078553334362E-06    -0.17655834898397E-06    -0.44035715308197E-06
   O      -0.19087688398709E-07    -0.20928505172161E-07     0.24022705811417E-08
   O      -0.86092084500738E-08     0.61136234074443E-07     0.28318842649364E-06
   O       0.64722972093388E-07    -0.11418003346684E-07     0.28420375767169E-06
   O      -0.69471936982152E-08    -0.10617753585603E-07    -0.13550098769554E-08
[...]
   Mg      0.46086244961940E-05     0.36559102049408E-05    -0.21000322333435E-04
   Mg     -0.62844211331685E-05     0.27585108028280E-05    -0.12897852203994E-04
   Mg     -0.69571854324521E-06     0.45865876078944E-07    -0.28646188125646E-04
   Mg     -0.46030273007804E-05     0.35596363696317E-05    -0.72646302723079E-05
   Mg     -0.40852208079402E-05     0.48718542641309E-05    -0.12906440559024E-04
   Mg     -0.43973084203313E-06     0.43553543175348E-06     0.11674184382629E-04
   Mg     -0.95164598250096E-06    -0.39463411328962E-05     0.16370877643069E-05
   Mg      0.25491537451913E-05    -0.51138474171510E-05     0.15754826910848E-05
   Mg      0.39256996808674E-05    -0.64149234564243E-05     0.45513304312043E-05
   Mg      0.18841136554957E-04     0.73102479609770E-05     0.12773324046506E-04
   Mg      0.12123494803725E-04     0.37726342613092E-05     0.13048705997833E-04
   Mg      0.15938161453826E-05    -0.25955337196458E-05     0.15963862115966E-04
   Mg      0.32239392978910E-04     0.80263612391743E-06     0.81105962335405E-05
   Mg      0.18910304751911E-04     0.73634451200773E-05    -0.92682665698474E-05
   Mg      0.55492185985999E-04     0.10801856584430E-04     0.16989348420013E-05
   Mg     -0.87070819687203E-05    -0.56060076351380E-05     0.18235425912623E-05
   Mg      0.32221525482721E-04     0.82217964465645E-06    -0.46745742611634E-05
   Mg     -0.41454417279733E-06     0.48059469441977E-06    -0.84789851368448E-05
   Mg      0.12161724967549E-04     0.38773819760751E-05    -0.97589138620294E-05
   Mg      0.15141686606292E-05    -0.25791571754858E-05    -0.12605091955994E-04
   Mg      0.38754520105191E-05    -0.63806874929300E-05    -0.12762527696172E-05
   Mg     -0.26149959967461E-05    -0.26798034057646E-05     0.27090276695377E-06
   Mg     -0.51386249393137E-05     0.32286764216332E-05     0.16826081697529E-05
   Mg      0.33924118732557E-05    -0.53065537087648E-05     0.16758940815892E-05
   Mg      0.11243158815406E-05     0.87073192346567E-06     0.18719677963124E-07
   Mg     -0.22017770521321E-05     0.11044161419744E-05    -0.98547978894623E-05
   Mg      0.12237631452816E-05    -0.24843381174256E-05    -0.99007209076378E-05
   Mg     -0.25850408596547E-05    -0.26642994556977E-05     0.30912967027277E-05
   Mg     -0.21791509395622E-05     0.10591479817955E-05     0.13305794958113E-04
   Mg      0.11914425146404E-05    -0.24761836179177E-05     0.13286935420360E-04
   Mg      0.10906039430786E-05     0.83094041421650E-06     0.34033872416670E-05
   Mg     -0.52247242581806E-05     0.46964006913875E-05     0.45285267989758E-05
   Mg     -0.39473129273554E-05     0.33088994391501E-05     0.15660562662062E-05
   Mg     -0.53852698284740E-06     0.21781827529330E-05     0.16502463710837E-05
   Mg     -0.63659147402903E-06    -0.20300283581558E-05     0.11573958623204E-04
   Mg     -0.31706122969755E-04    -0.21541267749758E-05     0.81365742079935E-05
   Mg     -0.20757600673115E-05     0.12812698096608E-05     0.15994720418264E-04
   Mg     -0.12667355469295E-04    -0.50298028613899E-05     0.12669426870377E-04
   Mg     -0.18652343806908E-04    -0.83921549203110E-05     0.12650288555893E-04
   Mg     -0.31697819898766E-04    -0.21755875227772E-05    -0.47029742373646E-05
   Mg      0.93509445893955E-05     0.51906683854782E-05     0.18169136095170E-05
   Mg     -0.55069987057547E-04    -0.11193325941559E-04     0.16851742052275E-05
   Mg     -0.18753106164280E-04    -0.84517500172079E-05    -0.91254821933431E-05
   Mg     -0.51994089332153E-05     0.46595254163743E-05    -0.12433018184097E-05
   Mg     -0.20538260781867E-05     0.12668671385958E-05    -0.12629213695224E-04
   Mg     -0.12754436813381E-04    -0.51172119690105E-05    -0.92998393743590E-05
   Mg     -0.68343170882810E-06    -0.20663832260640E-05    -0.83550268776067E-05
   O       0.14829911016153E-04    -0.15874974875394E-04     0.10591726228028E-05
   O       0.71953656860175E-05    -0.83754652683476E-05     0.54280788683805E-04
   O       0.15548513408279E-04    -0.17425708725102E-04     0.19905028738238E-04
   O       0.13624475363932E-04    -0.17205207119640E-04     0.10477909347224E-05
   O       0.12930065647317E-04     0.34339853112681E-05     0.58160061435928E-04
   O      -0.17427619045120E-05     0.32872606681353E-05     0.57923990810178E-04
   O      -0.55864721385107E-05     0.58457213062482E-05    -0.75223620693870E-05
   O      -0.37354171822878E-05    -0.13852044192398E-04     0.57882904908861E-04
   O       0.13494282103716E-04     0.77992115901336E-05     0.22242911113079E-05
   O      -0.20547965581550E-05     0.34097455837716E-05    -0.53441121626082E-04
   O      -0.58653477255956E-05     0.60978304247533E-05     0.11209470547877E-04
   O      -0.59033161287012E-05    -0.14786065464336E-04     0.22339246361864E-05
   O       0.12734064593915E-04     0.38670940793314E-05    -0.55273471976257E-04
   O       0.70408347245226E-05    -0.82104511032346E-05    -0.52764522979620E-04
   O       0.15363596809984E-04    -0.17254569145703E-04    -0.17277738696712E-04
   O      -0.42810847604964E-05    -0.13691175796272E-04    -0.54864075732236E-04
   O      -0.92972376914595E-06     0.15961463004281E-05     0.14708513181769E-05
   O       0.88586667905596E-05    -0.83673558387428E-05     0.25054825666115E-04
   O       0.13004817153578E-05    -0.65624571383273E-05     0.16067622905271E-04
   O       0.18254432376358E-04    -0.13488339691073E-04     0.16649549870478E-05
   O      -0.15253737461469E-04    -0.12754704090567E-04     0.39650165780673E-04
   O       0.10509360885069E-04     0.90389429140032E-05     0.29689211723100E-04
   O      -0.26541836659510E-04    -0.10570445616552E-03     0.58586821860207E-04
   O      -0.32455834459936E-05    -0.16187955622856E-04     0.10888744453435E-04
   O      -0.28036009688925E-04    -0.10018281626960E-03     0.19699543634820E-05
   O       0.10506748186168E-04     0.92555837534775E-05    -0.25754624072886E-04
   O      -0.26794222862947E-04    -0.10601429952086E-03    -0.56040012177004E-04
   O      -0.80350010346619E-07    -0.25054929561539E-03     0.17730053656549E-05
   O      -0.15650907970275E-04    -0.13127190583179E-04    -0.36112586708778E-04
   O       0.88147111606502E-05    -0.83769515533759E-05    -0.21946750013204E-04
   O       0.11070170625981E-05    -0.65673007128308E-05    -0.12568307514525E-04
   O      -0.35455703561319E-05    -0.16026824289506E-04    -0.72739655697842E-05
   O       0.33208311883288E-06    -0.46523529319568E-06     0.73954737527101E-06
   O      -0.11010945066985E-04    -0.48480872903017E-07     0.44375649435789E-04
   O       0.10194424774630E-05    -0.11271717880617E-04     0.44150824454917E-04
   O       0.15203703275890E-05     0.77929364716151E-06     0.13318122837401E-05
   O      -0.12110612335435E-04    -0.12307398011305E-04     0.86334723259193E-04
   O      -0.29490588968739E-04    -0.41021060702091E-04     0.59632918520285E-04
   O      -0.41819311855627E-04    -0.29299282576292E-04     0.59490094190379E-04
   O      -0.27576631548752E-04    -0.27107271605758E-04     0.69191151880707E-04
   O      -0.18442797398647E-04    -0.18284211254570E-04     0.26946895378355E-05
   O      -0.29584332882313E-04    -0.41456474524830E-04    -0.55659998224228E-04
   O      -0.42134200508239E-04    -0.29284247768138E-04    -0.55682018136933E-04
   O      -0.43631811270343E-04    -0.43235582392998E-04     0.20443983254455E-05
   O      -0.12381352124105E-04    -0.12580439245937E-04    -0.83430786797893E-04
   O      -0.11273686397131E-04    -0.25919184439612E-06    -0.42407181454747E-04
   O       0.87077855569825E-06    -0.11441520728405E-04    -0.42245377357471E-04
   O      -0.28244830066255E-04    -0.27644537054920E-04    -0.67015657538960E-04
   O      -0.33818667237464E-05    -0.37101561368939E-05     0.13368202294937E-05
   O      -0.17637335666715E-05     0.92042989810754E-05     0.44575489674241E-04
   O       0.98194598949428E-05    -0.22562980685659E-05     0.44733136656619E-04
   O      -0.13832560845420E-05    -0.20105877545729E-05     0.73886663862709E-06
   O       0.26283953650441E-04     0.25559079426004E-04     0.70750537289110E-04
   O       0.44309928114007E-04     0.29311720178708E-04     0.59984666677808E-04
   O       0.29041580445101E-04     0.43601522624640E-04     0.59945346409791E-04
   O       0.12975506725518E-04     0.12426434864811E-04     0.86897226968675E-04
   O       0.45364457378734E-04     0.45505156912500E-04     0.19609523597147E-05
   O       0.44553522614801E-04     0.29292794326017E-04    -0.56222821114329E-04
   O       0.28949110519886E-04     0.43795809441083E-04    -0.56206378916936E-04
   O       0.21367881380405E-04     0.21655103140704E-04     0.26137554906547E-05
   O       0.26646691075357E-04     0.26048446623343E-04    -0.68750631663618E-04
   O      -0.16566502168865E-05     0.94114104722187E-05    -0.42648301551332E-04
   O       0.99781799782196E-05    -0.20580182547661E-05    -0.42675577187139E-04
   O       0.13103531649377E-04     0.12569117996755E-04    -0.84078020528728E-04
   O      -0.21169135208100E-04     0.98944031518256E-05     0.15786628434705E-05
   O      -0.36390041934370E-05     0.36203251516202E-05     0.16585825993107E-04
   O      -0.11360641147077E-04     0.54559139131263E-05     0.24994264646624E-04
   O      -0.15531466062239E-05    -0.52973187002086E-05     0.14652781750607E-05
   O       0.12720100356634E-05     0.15725087228899E-04     0.10665620166234E-04
   O       0.23622859434795E-04     0.10931406172831E-03     0.58604524307816E-04
   O      -0.12809431936069E-04    -0.62499177750901E-05     0.30064936155616E-04
   O       0.13266500707552E-04     0.12086734450079E-04     0.39910994722182E-04
   O      -0.40289720847075E-06     0.24943449748498E-03     0.19126573518234E-05
   O       0.23751525908340E-04     0.10965466142566E-03    -0.55976203039116E-04
   O      -0.12940265106020E-04    -0.65111201270904E-05    -0.26098566821665E-04
   O       0.27445448802134E-04     0.99676652116486E-04     0.19408530641242E-05
   O       0.14712754086241E-05     0.15514243931541E-04    -0.71942867565650E-05
   O      -0.34788024832304E-05     0.36000721378608E-05    -0.13150806428854E-04
   O      -0.11332255772369E-04     0.54475210554353E-05    -0.21806055792142E-04
   O       0.13466410424288E-04     0.12373283088197E-04    -0.36329511547270E-04
   O      -0.15340494487067E-04     0.14211274654121E-04     0.97664747969157E-06
   O      -0.17233217305025E-04     0.14990656144531E-04     0.19908506140814E-04
   O      -0.79729112792948E-05     0.64843004032021E-05     0.54380181324939E-04
   O      -0.16968317275963E-04     0.12938264270132E-04     0.10598669034138E-05
   O       0.38707292802369E-05     0.12489825548880E-04     0.58285463834660E-04
   O       0.57190101353400E-05    -0.53903122148678E-05    -0.73643760055849E-05
   O       0.34951577238267E-05    -0.16434827753257E-05     0.57894580566613E-04
   O      -0.13984578175243E-04    -0.40257288724736E-05     0.58046371584543E-04
   O       0.80148126708496E-05     0.15875908241673E-04     0.21354971604441E-05
   O       0.59166177791732E-05    -0.56301853804033E-05     0.11112194466335E-04
   O       0.35653988696986E-05    -0.17100993893447E-05    -0.53618500345250E-04
   O      -0.13253102440923E-04    -0.53772873947963E-05     0.23032178070262E-05
   O       0.42055661991225E-05     0.12304529295339E-04    -0.55231332496778E-04
   O      -0.17101020343369E-04     0.14833178433541E-04    -0.17371194705439E-04
   O      -0.78623522533694E-05     0.63855468011655E-05    -0.52861394376032E-04
   O      -0.13821825206589E-04    -0.45450075179662E-05    -0.55092103253830E-04
   O       0.10102095662619E-04    -0.21383110520281E-04     0.15855347084100E-05
   O       0.59729298101841E-05    -0.11343459426372E-04     0.24821637178035E-04
   O       0.37334799384662E-05    -0.36758651679493E-05     0.16491007549840E-04
   O      -0.47316991535918E-05    -0.18202964951589E-05     0.14193508023302E-05
   O       0.15873694087090E-04     0.16583404624498E-05     0.10326301103704E-04
   O      -0.62914635662751E-05    -0.12276707887095E-04     0.29583495929937E-04
   O       0.11176679454599E-03     0.23641632701625E-04     0.59597775849382E-04
   O       0.12383226080485E-04     0.13223663001564E-04     0.39592559643132E-04
   O       0.25599970799067E-03     0.20966252742283E-06     0.19049667462824E-05
   O      -0.65838943212144E-05    -0.12306809234504E-04    -0.25575804830154E-04
   O       0.11196245971441E-03     0.23827255820105E-04    -0.56915622942805E-04
   O       0.10230558926682E-03     0.28496444948707E-04     0.20834928310717E-05
   O       0.15632191229447E-04     0.19191031859584E-05    -0.68712013849420E-05
   O       0.58935821494474E-05    -0.11331430146341E-04    -0.21760269874145E-04
   O       0.37062926204830E-05    -0.35012748446049E-05    -0.13134057134922E-04
   O       0.12578603919692E-04     0.13498925380604E-04    -0.36100213320778E-04
   O       0.56424722352441E-05     0.51682597970743E-05     0.18280710499244E-05
   O       0.99157354047441E-05    -0.13182223377225E-04    -0.15859350336159E-04
   O      -0.12825017483261E-04     0.97018115104430E-05    -0.15814434077017E-04
   O      -0.87064973078189E-05    -0.87818884479509E-05     0.17746414572925E-05
   O      -0.16063331777577E-04    -0.16770974383111E-04    -0.91361008891788E-05
   O       0.13925894906671E-04     0.14316110204733E-04    -0.78959952244766E-05
   O      -0.16224477128174E-04    -0.17003926128896E-04     0.12814419143234E-04
   O       0.97227120693412E-05    -0.13083495444529E-04     0.19308536680113E-04
   O      -0.12770470240984E-04     0.96134611093533E-05     0.19314880656578E-04
   O       0.13960571569958E-04     0.14336825527927E-04     0.11276174439568E-04
   O       0.25868274952266E-05    -0.11873775613458E-05     0.14467302204533E-05
   O      -0.57476071509105E-05     0.95491371185103E-06     0.15946463129041E-04
   O      -0.76720199869507E-05     0.84790352657151E-05     0.24881366681094E-04
   O      -0.12817731665951E-04     0.17994616530786E-04     0.15844022269479E-05
   O      -0.12258855382906E-04    -0.15011384179656E-04     0.39153473544848E-04
   O      -0.10797628700275E-03    -0.25423212452164E-04     0.59681542128610E-04
   O       0.93782816539779E-05     0.11002334537791E-04     0.29391423517808E-04
   O      -0.15746978509621E-04    -0.35585362010366E-05     0.10697033080995E-04
   O      -0.10276381298489E-03    -0.27801300670666E-04     0.19157774928970E-05
   O      -0.10810546466466E-03    -0.25525446112479E-04    -0.57237021124979E-04
   O       0.94822846038751E-05     0.10985816583401E-04    -0.25356051028909E-04
   O      -0.25715175552788E-03     0.52632664149233E-06     0.17976629798796E-05
   O      -0.12561281395439E-04    -0.15322450104327E-04    -0.35646145751434E-04
   O      -0.57789113163686E-05     0.84203825798448E-06    -0.12488734649580E-04
   O      -0.76937932689952E-05     0.84475095586458E-05    -0.21892717573511E-04
   O      -0.15554674246089E-04    -0.38225765644417E-05    -0.71669298062956E-05
 


   Partial temperatures (for each ionic specie) 
   Species  Temp (K)   Mean Square Displacement (a.u.)
        1   0.00E+00     0.0000E+00
        2   0.00E+00     0.0000E+00
        3   0.00E+00     0.0000E+00
      5    0.000000000727267    0.0    0.00   -2898.553655194060   -2898.553655194060   -2898.553655194060   -2898.553655193333   0.0000   0.0000   0.0000   0.0000
Elct. dipole 1   -9.047027  Ionic dipole 1    9.036582

   writing restart file (with schema): ./Ag16_334_57.save/
     restart      :      3.27s CPU      3.67s WALL (       1 calls)


   Averaged Physical Quantities
                      accumulated      this run
   ekinc         :        0.00000       0.00000 (AU)
   ekin          :     1316.41407    1316.41407 (AU)
   epot          :    -4408.24793   -4408.24793 (AU)
   total energy  :    -2898.55366   -2898.55366 (AU)
   temperature   :        0.00000       0.00000 (K )
   enthalpy      :    -2898.55366   -2898.55366 (AU)
   econs         :    -2898.55366   -2898.55366 (AU)
   pressure      :        0.00084       0.00084 (Gpa)
   volume        :    19548.26616   19548.26616 (AU)



     Called by MAIN_LOOP:
     initialize   :     30.68s CPU     19.10s WALL (       1 calls)
     main_loop    :    492.63s CPU    354.70s WALL (       5 calls)
     cpr_total    :    495.90s CPU    358.37s WALL (       1 calls)

     Called by INIT_RUN:
     init_readfil :      6.78s CPU      6.70s WALL (       1 calls)

     Called by CPR:
     cpr_md       :    495.90s CPU    358.37s WALL (       5 calls)
     move_electro :    475.59s CPU    340.27s WALL (       5 calls)

     Called by move_electrons:
     rhoofr       :      7.21s CPU      3.68s WALL (       5 calls)
     vofrho       :      0.73s CPU      0.38s WALL (       5 calls)
     dforce       :     32.26s CPU     16.60s WALL (    1545 calls)
     calphi       :      0.15s CPU      0.16s WALL (       5 calls)
     newd         :      5.69s CPU      2.88s WALL (       5 calls)
     nlfl         :      6.11s CPU      5.17s WALL (       5 calls)

     Called by ortho:
     ortho_iter   :      0.18s CPU      0.10s WALL (       5 calls)
     rsg          :      0.39s CPU      0.33s WALL (       5 calls)
     rhoset       :      0.80s CPU      0.49s WALL (       5 calls)
     sigset       :      0.13s CPU      0.13s WALL (       5 calls)
     tauset       :      0.12s CPU      0.12s WALL (       5 calls)
     ortho        :      2.66s CPU      1.73s WALL (       5 calls)
     updatc       :      0.99s CPU      0.51s WALL (       5 calls)

     Small boxes:
     rhov         :      0.28s CPU      0.14s WALL (       5 calls)
     fftb         :      2.96s CPU      1.49s WALL (    4772 calls)
     set_cc       :      0.08s CPU      0.04s WALL (       5 calls)
     forcecc      :      0.22s CPU      0.11s WALL (       5 calls)

     Low-level routines:
     prefor       :      0.04s CPU      0.02s WALL (       6 calls)
     nlfq         :      1.32s CPU      0.77s WALL (       5 calls)
     nlsm1        :      1.18s CPU      0.62s WALL (      11 calls)
     nlsm2        :      1.31s CPU      0.77s WALL (       5 calls)
     fft          :      1.47s CPU      0.75s WALL (      76 calls)
     ffts         :      0.03s CPU      0.02s WALL (      10 calls)
     fftw         :     24.08s CPU     12.36s WALL (    4635 calls)
     fft_scatt_xy :      0.27s CPU      0.14s WALL (    4721 calls)
     fft_scatt_yz :     23.51s CPU     12.08s WALL (    4721 calls)
     fft_scatt_tg :      0.06s CPU      0.03s WALL (    4635 calls)
     betagx       :     11.84s CPU      5.95s WALL (       1 calls)
     qradx        :      8.67s CPU      4.35s WALL (       1 calls)
     nlinit       :     23.20s CPU     11.72s WALL (       1 calls)
     init_dim     :      0.45s CPU      0.45s WALL (       1 calls)
     newnlinit    :      0.84s CPU      0.48s WALL (       1 calls)
     from_restart :      2.95s CPU      2.84s WALL (       1 calls)
     strucf       :      0.00s CPU      0.00s WALL (       1 calls)
     calbec       :      1.18s CPU      0.62s WALL (      11 calls)
 
 
     CP           :   8m46.87s CPU   6m17.83s WALL

 
   This run was terminated on:  11: 0:19  16Feb2021            

=------------------------------------------------------------------------------=
   JOB DONE.
=------------------------------------------------------------------------------=
[1613491219.933542] [nia0222:13652:0]          mpool.c:42   UCX  WARN  object 0x60add80 was not returned to mpool ucp_requests
[1613491219.986522] [nia0222:13628:0]          mpool.c:42   UCX  WARN  object 0x79004c0 was not returned to mpool ucp_requests
[1613491219.991034] [nia0222:13682:0]          mpool.c:42   UCX  WARN  object 0x721e700 was not returned to mpool ucp_requests
