
     Program CP v.6.6 starts on 16Feb2021 at 11: 0:23 

     This program is part of the open-source Quantum ESPRESSO suite
     for quantum simulation of materials; please cite
         "P. Giannozzi et al., J. Phys.:Condens. Matter 21 395502 (2009);
         "P. Giannozzi et al., J. Phys.:Condens. Matter 29 465901 (2017);
          URL http://www.quantum-espresso.org", 
     in publications or presentations arising from this work. More details at
     http://www.quantum-espresso.org/quote

     Parallel version (MPI & OpenMP), running on     320 processor cores
     Number of MPI processes:               160
     Threads/MPI process:                     2

     MPI processes distributed on     4 nodes
     R & G space division:  proc/nbgrp/npool/nimage =     160
     Fft bands division:     nmany     =       1
     Waiting for input...
     Reading input from standard input

   Job Title: MD Simulation


   Atomic Pseudopotentials Parameters
   ----------------------------------

   Reading pseudopotential for specie #  1 from file :
   ./O.pz-n-rrkjus_psl.0.1.UPF
     Message from routine emend_upf/check:
     BEWARE !!! Possible out of bounds while fixing pseudo
     Message from routine emend_upf/check:
     BEWARE !!! Possible out of bounds while fixing pseudo
     Message from routine read_upf:
     Pseudo file O.pz-n-rrkjus_psl.0.1.UPF has been fixed on the fly.
     To avoid this message in the future, permanently fix 
     your pseudo files following these instructions: 
     https://gitlab.com/QEF/q-e/blob/master/upftools/how_to_fix_upf.md
   file type is UPF v.2

   Reading pseudopotential for specie #  2 from file :
   ./Ag.pz-d-rrkjus.UPF
   file type is UPF v.1

   Reading pseudopotential for specie #  3 from file :
   ./Mg.pz-bhs.UPF
   file type is UPF v.1
     file Ag.pz-d-rrkjus.UPF: wavefunction(s)  4D 5S renormalized


   Main Simulation Parameters (from input)
   ---------------------------------------
   Restart Mode       =       0   reset_counters 
   Number of MD Steps =    1000
   Print out every           10 MD Steps
   Reads from unit    =      57
   Writes to unit     =      58
   MD Simulation time step            =       8.00
   Electronic fictitious mass (emass) =     300.00
   emass cut-off                      =       2.50

   Simulation Cell Parameters (from input)
   external pressure       =            0.00 [KBar]
   wmass (calculated)      =       949740.81 [AU]
   initial cell from CELL_PARAMETERS card
      12.63360000    0.00000000    0.00000000
       0.00000000   12.63360000    0.00000000
       0.00000000    0.00000000   16.84480000
   ibrav =    0
   alat  =    23.87404397
   a1    =    23.87404397    0.00000000    0.00000000
   a2    =     0.00000000   23.87404397    0.00000000
   a3    =     0.00000000    0.00000000   31.83205862
 
   b1    =     0.04188649    0.00000000    0.00000000
   b2    =     0.00000000    0.04188649    0.00000000
   b3    =     0.00000000    0.00000000    0.03141487
   omega =   18143.31767057

   Energy Cut-offs
   ---------------
   Ecutwfc =   50.0 Ry,      Ecutrho =  400.0 Ry,      Ecuts =  200.0 Ry
   Gcutwfc =   26.9     ,    Gcutrho =   76.0          Gcuts =   53.7
   NOTA BENE: refg, mmx =   0.050000  9600
   Eigenvalues calculated without the kinetic term contribution
   Orthog. with lagrange multipliers : eps =   0.10E-08,  max = 100
   verlet algorithm for electron dynamics
   with friction frice =  0.0500 , grease =  1.0000
   Electron dynamics : the temperature is not controlled

   Electronic states
   -----------------
   Number of Electrons=  1236, of States =   618
   Occupation numbers :
   2.00 2.00 2.00 2.00 2.00 2.00 2.00 2.00 2.00 2.00
   2.00 2.00 2.00 2.00 2.00 2.00 2.00 2.00 2.00 2.00
   2.00 2.00 2.00 2.00 2.00 2.00 2.00 2.00 2.00 2.00
   2.00 2.00 2.00 2.00 2.00 2.00 2.00 2.00 2.00 2.00
   2.00 2.00 2.00 2.00 2.00 2.00 2.00 2.00 2.00 2.00
   2.00 2.00 2.00 2.00 2.00 2.00 2.00 2.00 2.00 2.00
   2.00 2.00 2.00 2.00 2.00 2.00 2.00 2.00 2.00 2.00
   2.00 2.00 2.00 2.00 2.00 2.00 2.00 2.00 2.00 2.00
   2.00 2.00 2.00 2.00 2.00 2.00 2.00 2.00 2.00 2.00
   2.00 2.00 2.00 2.00 2.00 2.00 2.00 2.00 2.00 2.00
   2.00 2.00 2.00 2.00 2.00 2.00 2.00 2.00 2.00 2.00
   2.00 2.00 2.00 2.00 2.00 2.00 2.00 2.00 2.00 2.00
   2.00 2.00 2.00 2.00 2.00 2.00 2.00 2.00 2.00 2.00
   2.00 2.00 2.00 2.00 2.00 2.00 2.00 2.00 2.00 2.00
   2.00 2.00 2.00 2.00 2.00 2.00 2.00 2.00 2.00 2.00
   2.00 2.00 2.00 2.00 2.00 2.00 2.00 2.00 2.00 2.00
   2.00 2.00 2.00 2.00 2.00 2.00 2.00 2.00 2.00 2.00
   2.00 2.00 2.00 2.00 2.00 2.00 2.00 2.00 2.00 2.00
   2.00 2.00 2.00 2.00 2.00 2.00 2.00 2.00 2.00 2.00
   2.00 2.00 2.00 2.00 2.00 2.00 2.00 2.00 2.00 2.00
   2.00 2.00 2.00 2.00 2.00 2.00 2.00 2.00 2.00 2.00
   2.00 2.00 2.00 2.00 2.00 2.00 2.00 2.00 2.00 2.00
   2.00 2.00 2.00 2.00 2.00 2.00 2.00 2.00 2.00 2.00
   2.00 2.00 2.00 2.00 2.00 2.00 2.00 2.00 2.00 2.00
   2.00 2.00 2.00 2.00 2.00 2.00 2.00 2.00 2.00 2.00
   2.00 2.00 2.00 2.00 2.00 2.00 2.00 2.00 2.00 2.00
   2.00 2.00 2.00 2.00 2.00 2.00 2.00 2.00 2.00 2.00
   2.00 2.00 2.00 2.00 2.00 2.00 2.00 2.00 2.00 2.00
   2.00 2.00 2.00 2.00 2.00 2.00 2.00 2.00 2.00 2.00
   2.00 2.00 2.00 2.00 2.00 2.00 2.00 2.00 2.00 2.00
   2.00 2.00 2.00 2.00 2.00 2.00 2.00 2.00 2.00 2.00
   2.00 2.00 2.00 2.00 2.00 2.00 2.00 2.00 2.00 2.00
   2.00 2.00 2.00 2.00 2.00 2.00 2.00 2.00 2.00 2.00
   2.00 2.00 2.00 2.00 2.00 2.00 2.00 2.00 2.00 2.00
   2.00 2.00 2.00 2.00 2.00 2.00 2.00 2.00 2.00 2.00
   2.00 2.00 2.00 2.00 2.00 2.00 2.00 2.00 2.00 2.00
   2.00 2.00 2.00 2.00 2.00 2.00 2.00 2.00 2.00 2.00
   2.00 2.00 2.00 2.00 2.00 2.00 2.00 2.00 2.00 2.00
   2.00 2.00 2.00 2.00 2.00 2.00 2.00 2.00 2.00 2.00
   2.00 2.00 2.00 2.00 2.00 2.00 2.00 2.00 2.00 2.00
   2.00 2.00 2.00 2.00 2.00 2.00 2.00 2.00 2.00 2.00
   2.00 2.00 2.00 2.00 2.00 2.00 2.00 2.00 2.00 2.00
   2.00 2.00 2.00 2.00 2.00 2.00 2.00 2.00 2.00 2.00
   2.00 2.00 2.00 2.00 2.00 2.00 2.00 2.00 2.00 2.00
   2.00 2.00 2.00 2.00 2.00 2.00 2.00 2.00 2.00 2.00
   2.00 2.00 2.00 2.00 2.00 2.00 2.00 2.00 2.00 2.00
   2.00 2.00 2.00 2.00 2.00 2.00 2.00 2.00 2.00 2.00
   2.00 2.00 2.00 2.00 2.00 2.00 2.00 2.00 2.00 2.00
   2.00 2.00 2.00 2.00 2.00 2.00 2.00 2.00 2.00 2.00
   2.00 2.00 2.00 2.00 2.00 2.00 2.00 2.00 2.00 2.00
   2.00 2.00 2.00 2.00 2.00 2.00 2.00 2.00 2.00 2.00
   2.00 2.00 2.00 2.00 2.00 2.00 2.00 2.00 2.00 2.00
   2.00 2.00 2.00 2.00 2.00 2.00 2.00 2.00 2.00 2.00
   2.00 2.00 2.00 2.00 2.00 2.00 2.00 2.00 2.00 2.00
   2.00 2.00 2.00 2.00 2.00 2.00 2.00 2.00 2.00 2.00
   2.00 2.00 2.00 2.00 2.00 2.00 2.00 2.00 2.00 2.00
   2.00 2.00 2.00 2.00 2.00 2.00 2.00 2.00 2.00 2.00
   2.00 2.00 2.00 2.00 2.00 2.00 2.00 2.00 2.00 2.00
   2.00 2.00 2.00 2.00 2.00 2.00 2.00 2.00 2.00 2.00
   2.00 2.00 2.00 2.00 2.00 2.00 2.00 2.00 2.00 2.00
   2.00 2.00 2.00 2.00 2.00 2.00 2.00 2.00 2.00 2.00
   2.00 2.00 2.00 2.00 2.00 2.00 2.00 2.00


   Exchange and correlations functionals
   -------------------------------------
     Exchange-correlation=  SLA  PZ   NOGX NOGC
                           (   1   1   0   0   0   0   0)


   Ions Simulation Parameters
   --------------------------
   Ions are not allowed to move
   Ionic position (from input)
   sorted by specie, and converted to real a.u. coordinates
   Species   1 atoms =  138 mass =     29166.22 (a.u.),        16.00 (amu) rcmax =   0.50 (a.u.)
       17.686732    17.800724    29.675879
       17.686732    21.779731    25.696872
       21.665740    17.800724    25.696872
       21.665739    21.779731    29.675879
       17.686732    17.800724    21.717864
       17.686732    21.779731    17.738857
       21.665740    17.800724    17.738857
       21.665740    21.779731    21.717864
       17.686732    17.800724    13.759849
       17.686732    21.779732     9.780841
       21.665740    17.800724     9.780841
       21.665740    21.779731    13.759849
       17.686733    17.800725     5.801834
       17.686733    21.779732     1.822826
       21.665741    17.800725     1.822826
       21.665740    21.779732     5.801834
       17.686732     9.842708    29.675879
       17.686732    13.821716    25.696872
       21.665740     9.842709    25.696872
       21.665740    13.821716    29.675879
       17.686732     9.842709    21.717864
       17.686732    13.821716    17.738857
       21.665740     9.842709    17.738857
       21.665740    13.821716    21.717864
       17.686733     9.842709    13.759849
       17.686733    13.821717     9.780841
       21.665741     9.842709     9.780841
       21.665740    13.821716    13.759849
       17.686733     9.842709     5.801834
       17.686733    13.821717     1.822826
       21.665741     9.842710     1.822826
       21.665741    13.821717     5.801834
       17.686732     1.884693    29.675879
       17.686732     5.863701    25.696872
       21.665740     1.884693    25.696872
       21.665740     5.863701    29.675879
       17.686733     1.884694    21.717864
       17.686733     5.863701    17.738857
       21.665741     1.884694    17.738857
       21.665740     5.863701    21.717864
       17.686733     1.884694    13.759849
       17.686733     5.863701     9.780841
       21.665741     1.884694     9.780841
       21.665741     5.863701    13.759849
       17.686733     1.884694     5.801834
       17.686733     5.863702     1.822826
       21.665741     1.884695     1.822826
       21.665741     5.863702     5.801834
        9.728716    17.800724    29.675879
        9.728716    21.779731    25.696872
       13.707725    17.800724    25.696872
       13.707724    21.779731    29.675879
        9.728717    17.800724    21.717864
        9.728717    21.779731    17.738857
       13.707725    17.800724    17.738857
       13.707725    21.779731    21.717864
        9.728717    17.800724    13.759849
        9.728717    21.779732     9.780841
       13.707725    17.800724     9.780841
       13.707725    21.779731    13.759849
        9.728718    17.800725     5.801834
        9.728718    21.779732     1.822826
       13.707726    17.800725     1.822826
       13.707725    21.779732     5.801834
        9.728717     9.842708    29.675879
        9.728717    13.821716    25.696872
       13.707725     9.842709    25.696872
       13.707725    13.821716    29.675879
        9.728717     9.842709    21.717864
        9.728717    13.821716    17.738857
       13.707725     9.842709    17.738857
       13.707725    13.821716    21.717864
        9.728718     9.842709    13.759849
        9.728718    13.821717     9.780841
       13.707726     9.842709     9.780841
       13.707725    13.821716    13.759849
        9.728718     9.842709     5.801834
        9.728718    13.821717     1.822826
       13.707726     9.842710     1.822826
       13.707726    13.821717     5.801834
        9.728717     1.884693    29.675879
        9.728717     5.863701    25.696872
       13.707725     1.884693    25.696872
       13.707725     5.863701    29.675879
        9.728718     1.884694    21.717864
        9.728718     5.863701    17.738857
       13.707726     1.884694    17.738857
       13.707725     5.863701    21.717864
        9.728718     1.884694    13.759849
        9.728718     5.863701     9.780841
       13.707726     1.884694     9.780841
       13.707726     5.863701    13.759849
        9.728718     1.884694     5.801834
        9.728718     5.863702     1.822826
       13.707726     1.884695     1.822826
       13.707726     5.863702     5.801834
        1.770701    17.800724    29.675879
        1.770701    21.779731    25.696872
        5.749709    17.800724    25.696872
        5.749709    21.779731    29.675879
        1.770702    17.800724    21.717864
        1.770702    21.779731    17.738857
        5.749710    17.800724    17.738857
        5.749709    21.779731    21.717864
        1.770702    17.800724    13.759849
        1.770702    21.779732     9.780841
        5.749710    17.800724     9.780841
        5.749710    21.779731    13.759849
        1.770702    17.800725     5.801834
        1.770702    21.779732     1.822826
        5.749711    17.800725     1.822826
        5.749710    21.779732     5.801834
        1.770702     9.842708    29.675879
        1.770702    13.821716    25.696872
        5.749710     9.842709    25.696872
        5.749709    13.821716    29.675879
        1.770702     9.842709    21.717864
        5.749710    13.821716    21.717864
        1.770703     9.842709     5.801834
        1.770703    13.821717     1.822826
        5.749711     9.842710     1.822826
        5.749711    13.821717     5.801834
        1.770702     1.884693    29.675879
        1.770702     5.863701    25.696872
        5.749710     1.884693    25.696872
        5.749710     5.863701    29.675879
        1.770702     1.884694    21.717864
        1.770702     5.863701    17.738857
        5.749711     1.884694    17.738857
        5.749710     5.863701    21.717864
        1.770703     1.884694    13.759849
        1.770703     5.863701     9.780841
        5.749711     1.884694     9.780841
        5.749711     5.863701    13.759849
        1.770703     1.884694     5.801834
        1.770703     5.863702     1.822826
        5.749711     1.884695     1.822826
        5.749711     5.863702     5.801834
   Species   2 atoms =   12 mass =    196689.67 (a.u.),       107.90 (amu) rcmax =   0.50 (a.u.)
        1.770702    13.821716    17.738857
        5.749710     9.842709    17.738857
        5.749710    13.821716    17.738857
        1.770702     9.842709    17.738857
        1.770702     9.842709    13.759849
        1.770702    13.821717     9.780841
        5.749711     9.842709     9.780841
        5.749710    13.821717     9.780841
        5.749710     9.842709    13.759849
        1.770702    13.821717    13.759849
        5.749710    13.821716    13.759849
        1.770703     9.842709     9.780841
   Species   3 atoms =  138 mass =     44296.19 (a.u.),        24.30 (amu) rcmax =   0.50 (a.u.)
       21.665739    21.779731    25.696872
       21.665739    17.800724    29.675879
       17.686731    21.779731    29.675879
       17.686732    17.800724    25.696872
       21.665740    21.779732    17.738857
       21.665740    17.800724    21.717864
       17.686732    21.779731    21.717864
       17.686732    17.800724    17.738857
       21.665740    21.779732     9.780841
       21.665740    17.800724    13.759849
       17.686732    21.779732    13.759849
       17.686732    17.800724     9.780841
       21.665740    21.779732     1.822826
       21.665740    17.800725     5.801834
       17.686732    21.779732     5.801834
       17.686733    17.800725     1.822826
       21.665740    13.821716    25.696872
       21.665740     9.842708    29.675879
       17.686732    13.821716    29.675879
       17.686732     9.842709    25.696872
       21.665740    13.821716    17.738857
       21.665740     9.842709    21.717864
       17.686732    13.821716    21.717864
       17.686732     9.842709    17.738857
       21.665740    13.821717     9.780841
       21.665740     9.842709    13.759849
       17.686732    13.821717    13.759849
       17.686733     9.842709     9.780841
       21.665741    13.821717     1.822826
       21.665741     9.842709     5.801834
       17.686733    13.821717     5.801834
       17.686733     9.842710     1.822826
       21.665740     5.863701    25.696872
       21.665740     1.884693    29.675879
       17.686732     5.863701    29.675879
       17.686732     1.884693    25.696872
       21.665740     5.863701    17.738857
       21.665740     1.884694    21.717864
       17.686732     5.863701    21.717864
       17.686733     1.884694    17.738857
       21.665741     5.863702     9.780841
       21.665741     1.884694    13.759849
       17.686733     5.863702    13.759849
       17.686733     1.884694     9.780841
       21.665741     5.863702     1.822826
       21.665741     1.884694     5.801834
       17.686733     5.863702     5.801834
       17.686734     1.884695     1.822826
       13.707724    21.779731    25.696872
       13.707724    17.800724    29.675879
        9.728716    21.779731    29.675879
        9.728717    17.800724    25.696872
       13.707724    21.779732    17.738857
       13.707724    17.800724    21.717864
        9.728717    21.779731    21.717864
        9.728717    17.800724    17.738857
       13.707725    21.779732     9.780841
       13.707725    17.800724    13.759849
        9.728717    21.779732    13.759849
        9.728717    17.800724     9.780841
       13.707725    21.779732     1.822826
       13.707725    17.800725     5.801834
        9.728717    21.779732     5.801834
        9.728718    17.800725     1.822826
       13.707724    13.821716    25.696872
       13.707724     9.842708    29.675879
        9.728717    13.821716    29.675879
        9.728717     9.842709    25.696872
       13.707725    13.821716    17.738857
       13.707725     9.842709    21.717864
        9.728717    13.821716    21.717864
        9.728717     9.842709    17.738857
       13.707725    13.821717     9.780841
       13.707725     9.842709    13.759849
        9.728717    13.821717    13.759849
        9.728718     9.842709     9.780841
       13.707725    13.821717     1.822826
       13.707725     9.842709     5.801834
        9.728718    13.821717     5.801834
        9.728718     9.842710     1.822826
       13.707725     5.863701    25.696872
       13.707725     1.884693    29.675879
        9.728717     5.863701    29.675879
        9.728717     1.884693    25.696872
       13.707725     5.863701    17.738857
       13.707725     1.884694    21.717864
        9.728717     5.863701    21.717864
        9.728718     1.884694    17.738857
       13.707725     5.863702     9.780841
       13.707725     1.884694    13.759849
        9.728718     5.863702    13.759849
        9.728718     1.884694     9.780841
       13.707726     5.863702     1.822826
       13.707726     1.884694     5.801834
        9.728718     5.863702     5.801834
        9.728718     1.884695     1.822826
        5.749709    21.779731    25.696872
        5.749709    17.800724    29.675879
        1.770701    21.779731    29.675879
        1.770702    17.800724    25.696872
        5.749709    21.779732    17.738857
        5.749709    17.800724    21.717864
        1.770702    21.779731    21.717864
        1.770702    17.800724    17.738857
        5.749710    21.779732     9.780841
        5.749710    17.800724    13.759849
        1.770702    21.779732    13.759849
        1.770702    17.800724     9.780841
        5.749710    21.779732     1.822826
        5.749710    17.800725     5.801834
        1.770702    21.779732     5.801834
        1.770703    17.800725     1.822826
        5.749709    13.821716    25.696872
        5.749709     9.842708    29.675879
        1.770702    13.821716    29.675879
        1.770702     9.842709    25.696872
        5.749710     9.842709    21.717864
        1.770702    13.821716    21.717864
        5.749710    13.821717     1.822826
        5.749710     9.842709     5.801834
        1.770703    13.821717     5.801834
        1.770703     9.842710     1.822826
        5.749710     5.863701    25.696872
        5.749710     1.884693    29.675879
        1.770702     5.863701    29.675879
        1.770702     1.884693    25.696872
        5.749710     5.863701    17.738857
        5.749710     1.884694    21.717864
        1.770702     5.863701    21.717864
        1.770703     1.884694    17.738857
        5.749710     5.863702     9.780841
        5.749710     1.884694    13.759849
        1.770703     5.863702    13.759849
        1.770703     1.884694     9.780841
        5.749711     5.863702     1.822826
        5.749711     1.884694     5.801834
        1.770703     5.863702     5.801834
        1.770703     1.884695     1.822826
   Ionic position will be re-read from restart file


   Cell Dynamics Parameters (from STDIN)
   -------------------------------------
   internal stress tensor calculated
   Starting cell generated from CELLDM
   Cell parameters will be re-read from restart file
   Constant VOLUME Molecular dynamics
   cell parameters are not allowed to move

    =====================================
    |  BERRY PHASE ELECTRIC FIELD 1        
    =====================================
    | direction    =         3            
    | intensity    =   0.00100 a.u.     
    =====================================

   Verbosity: iverbosity =  0



   Simulation dimensions initialization
   ------------------------------------

   unit vectors of full simulation cell
   in real space:                         in reciprocal space (units 2pi/alat):
   1    23.8740    0.0000    0.0000              1.0000    0.0000    0.0000
   2     0.0000   23.8740    0.0000              0.0000    1.0000    0.0000
   3     0.0000    0.0000   31.8321              0.0000    0.0000    0.7500
 
     Parallelization info
     --------------------
     sticks:   dense  smooth     PW     G-vecs:    dense   smooth      PW
     Min         112      55     13                15304     5404     658
     Max         114      58     16                15338     5430     686
     Sum       18121    9057   2249              2451395   866495  108199
 
 
   Real Mesh
   ---------
   Global Dimensions   Local  Dimensions   Processor Grid
   .X.   .Y.   .Z.     .X.   .Y.   .Z.     .X.   .Y.   .Z.
   160   160   216     160   160     2       1     1   160
   Array leading dimensions ( nr1x, nr2x, nr3x )   =    160   160   216
   Local number of cell to store the grid ( nrxx ) =      51200
   Number of x-y planes for each processors: 
  | 160,   2  | 160,   2  | 160,   2  | 160,   2  | 160,   2
  | 160,   2  | 160,   2  | 160,   2  | 160,   2  | 160,   2
  | 160,   2  | 160,   2  | 160,   2  | 160,   2  | 160,   2
  | 160,   2  | 160,   2  | 160,   2  | 160,   2  | 160,   2
  | 160,   2  | 160,   2  | 160,   2  | 160,   2  | 160,   2
  | 160,   2  | 160,   2  | 160,   2  | 160,   2  | 160,   2
  | 160,   2  | 160,   2  | 160,   2  | 160,   2  | 160,   2
  | 160,   2  | 160,   2  | 160,   2  | 160,   2  | 160,   2
  | 160,   2  | 160,   2  | 160,   2  | 160,   2  | 160,   2
  | 160,   2  | 160,   2  | 160,   2  | 160,   2  | 160,   2
  | 160,   2  | 160,   2  | 160,   2  | 160,   2  | 160,   2
  | 160,   2  | 160,   1  | 160,   1  | 160,   1  | 160,   1
  | 160,   1  | 160,   1  | 160,   1  | 160,   1  | 160,   1
  | 160,   1  | 160,   1  | 160,   1  | 160,   1  | 160,   1
  | 160,   1  | 160,   1  | 160,   1  | 160,   1  | 160,   1
  | 160,   1  | 160,   1  | 160,   1  | 160,   1  | 160,   1
  | 160,   1  | 160,   1  | 160,   1  | 160,   1  | 160,   1
  | 160,   1  | 160,   1  | 160,   1  | 160,   1  | 160,   1
  | 160,   1  | 160,   1  | 160,   1  | 160,   1  | 160,   1
  | 160,   1  | 160,   1  | 160,   1  | 160,   1  | 160,   1
  | 160,   1  | 160,   1  | 160,   1  | 160,   1  | 160,   1
  | 160,   1  | 160,   1  | 160,   1  | 160,   1  | 160,   1
  | 160,   1  | 160,   1  | 160,   1  | 160,   1  | 160,   1
  | 160,   1  | 160,   1  | 160,   1  | 160,   1  | 160,   1
  | 160,   1  | 160,   1  | 160,   1  | 160,   1  | 160,   1
  | 160,   1  | 160,   1  | 160,   1  | 160,   1  | 160,   1
  | 160,   1  | 160,   1  | 160,   1  | 160,   1  | 160,   1
  | 160,   1  | 160,   1  | 160,   1  | 160,   1  | 160,   1
  | 160,   1  | 160,   1  | 160,   1  | 160,   1  | 160,   1
  | 160,   1  | 160,   1  | 160,   1  | 160,   1  | 160,   1
  | 160,   1  | 160,   1  | 160,   1  | 160,   1  | 160,   1
  | 160,   1  | 160,   1  | 160,   1  | 160,   1  | 160,   1
 
   Smooth Real Mesh
   ----------------
   Global Dimensions   Local  Dimensions   Processor Grid
   .X.   .Y.   .Z.     .X.   .Y.   .Z.     .X.   .Y.   .Z.
   108   108   144     108   108     1       1     1   160
   Array leading dimensions ( nr1x, nr2x, nr3x )   =    108   108   144
   Local number of cell to store the grid ( nrxx ) =      11664
   Number of x-y planes for each processors: 
  | 108,   1  | 108,   1  | 108,   1  | 108,   1  | 108,   1
  | 108,   1  | 108,   1  | 108,   1  | 108,   1  | 108,   1
  | 108,   1  | 108,   1  | 108,   1  | 108,   1  | 108,   1
  | 108,   1  | 108,   1  | 108,   1  | 108,   1  | 108,   1
  | 108,   1  | 108,   1  | 108,   1  | 108,   1  | 108,   1
  | 108,   1  | 108,   1  | 108,   1  | 108,   1  | 108,   1
  | 108,   1  | 108,   1  | 108,   1  | 108,   1  | 108,   1
  | 108,   1  | 108,   1  | 108,   1  | 108,   1  | 108,   1
  | 108,   1  | 108,   1  | 108,   1  | 108,   1  | 108,   1
  | 108,   1  | 108,   1  | 108,   1  | 108,   1  | 108,   1
  | 108,   1  | 108,   1  | 108,   1  | 108,   1  | 108,   1
  | 108,   1  | 108,   1  | 108,   1  | 108,   1  | 108,   1
  | 108,   1  | 108,   1  | 108,   1  | 108,   1  | 108,   1
  | 108,   1  | 108,   1  | 108,   1  | 108,   1  | 108,   1
  | 108,   1  | 108,   1  | 108,   1  | 108,   1  | 108,   1
  | 108,   1  | 108,   1  | 108,   1  | 108,   1  | 108,   1
  | 108,   1  | 108,   1  | 108,   1  | 108,   1  | 108,   1
  | 108,   1  | 108,   1  | 108,   1  | 108,   1  | 108,   1
  | 108,   1  | 108,   1  | 108,   1  | 108,   1  | 108,   1
  | 108,   1  | 108,   1  | 108,   1  | 108,   1  | 108,   1
  | 108,   1  | 108,   1  | 108,   1  | 108,   1  | 108,   1
  | 108,   1  | 108,   1  | 108,   1  | 108,   1  | 108,   1
  | 108,   1  | 108,   1  | 108,   1  | 108,   1  | 108,   1
  | 108,   1  | 108,   1  | 108,   1  | 108,   1  | 108,   1
  | 108,   1  | 108,   1  | 108,   1  | 108,   1  | 108,   1
  | 108,   1  | 108,   1  | 108,   1  | 108,   1  | 108,   1
  | 108,   1  | 108,   1  | 108,   1  | 108,   1  | 108,   1
  | 108,   1  | 108,   1  | 108,   1  | 108,   1  | 108,   1
  | 108,   1  | 108,   1  | 108,   1  | 108,   1  | 108,   0
  | 108,   0  | 108,   0  | 108,   0  | 108,   0  | 108,   0
  | 108,   0  | 108,   0  | 108,   0  | 108,   0  | 108,   0
  | 108,   0  | 108,   0  | 108,   0  | 108,   0  | 108,   0
 
   Small Box Real Mesh
   -------------------
   Global Dimensions   Local  Dimensions   Processor Grid
   .X.   .Y.   .Z.     .X.   .Y.   .Z.     .X.   .Y.   .Z.
    30    30    30      30    30    30       1     1     1
   Array leading dimensions ( nr1x, nr2x, nr3x )   =     30    30    30
   Local number of cell to store the grid ( nrxx ) =      27000
 
   unit vectors of box grid cell
   in real space:                         in reciprocal space:
       4.4764    0.0000    0.0000              1.0000    0.0000    0.0000
       0.0000    4.4764    0.0000              0.0000    1.0000    0.0000
       0.0000    0.0000    4.4211              0.0000    0.0000    1.0125
 
   Reciprocal Space Mesh
   ---------------------
   Large Mesh
     Global(ngm_g)    MinLocal       MaxLocal      Average
        1225698           7652           7669        7660.61
   Smooth Mesh
     Global(ngms_g)   MinLocal       MaxLocal      Average
         433248           2702           2715        2707.80
   Wave function Mesh
     Global(ngw_g)    MinLocal       MaxLocal      Average
          54100            329            343         338.12

   Small box Mesh
   ngb =         5979 not distributed to processors


   System geometry initialization
   ------------------------------
   cell parameters read from restart file
   ibrav =    0       cell parameters 


   cell at current step : h(t)
      24.54239       0.00076       0.00000
       0.00076      24.54229       0.00000
       0.00000       0.00000      32.45460

   cell at previous step : h(t-dt)
      24.54239       0.00076       0.00000
       0.00076      24.54229       0.00000
       0.00000       0.00000      32.45460
 
 
   unit vectors of box grid cell
   in real space:                         in reciprocal space:
       4.6017    0.0001    0.0000              1.0000   -0.0000   -0.0000
       0.0001    4.6017    0.0000             -0.0000    1.0000   -0.0000
       0.0000    0.0000    4.5076             -0.0000   -0.0000    1.0209

   Matrix Multiplication Performances
   ortho mmul, time for parallel driver      =   0.00075 with  144 procs

   Constraints matrixes will be distributed block like on
   ortho sub-group =   12*  12 procs



   Pseudopotentials initialization
   -------------------------------
is, nh(is), ngb, kkbeta, lmaxq =     1    8 5979  761    5
 
                        qqq 
  -0.1545  -0.1232   0.0000   0.0000
  -0.1232  -0.0988   0.0000   0.0000
   0.0000   0.0000   0.1445   0.1161
   0.0000   0.0000   0.1161   0.0931
 
is, nh(is), ngb, kkbeta, lmaxq =     2   13 5979  987    5
 
                        qqq 
  -0.0000   0.0000   0.0000
   0.0000   0.5280  -0.5060
   0.0000  -0.5060   0.4853
 


   Common initialization

   Specie:     1
   1  indv=  1   ang. mom=  0
   2  indv=  2   ang. mom=  0
   3  indv=  3   ang. mom=  1
   4  indv=  3   ang. mom=  1
   5  indv=  3   ang. mom=  1
   6  indv=  4   ang. mom=  1
   7  indv=  4   ang. mom=  1
   8  indv=  4   ang. mom=  1
 
                        dion 
   0.3894   0.2818   0.0000   0.0000
   0.2818   0.2028   0.0000   0.0000
   0.0000   0.0000   0.4711   0.4028
   0.0000   0.0000   0.4028   0.3438

   Specie:     2
   1  indv=  1   ang. mom=  1
   2  indv=  1   ang. mom=  1
   3  indv=  1   ang. mom=  1
   4  indv=  2   ang. mom=  2
   5  indv=  2   ang. mom=  2
   6  indv=  2   ang. mom=  2
   7  indv=  2   ang. mom=  2
   8  indv=  2   ang. mom=  2
   9  indv=  3   ang. mom=  2
  10  indv=  3   ang. mom=  2
  11  indv=  3   ang. mom=  2
  12  indv=  3   ang. mom=  2
  13  indv=  3   ang. mom=  2
 
                        dion 
   0.0116   0.0000   0.0000
   0.0000  -1.4888   1.4112
   0.0000   1.4112  -1.3393

   Specie:     3
   1  indv=  1   ang. mom=  0
 
                        dion 
  10.8855

   Cell parameters from input file are used in electron mass preconditioning
   init_tpiba2=    0.06926403
 
   Short Legend and Physical Units in the Output
   ---------------------------------------------
   NFI    [int]          - step index
   EKINC  [HARTREE A.U.] - kinetic energy of the fictitious electronic dynamics
   TEMPH  [K]            - Temperature of the fictitious cell dynamics
   TEMP   [K]            - Ionic temperature
   ETOT   [HARTREE A.U.] - Scf total energy (Kohn-Sham hamiltonian)
   ENTHAL [HARTREE A.U.] - Enthalpy ( ETOT + P * V )
   ECONS  [HARTREE A.U.] - Enthalpy + kinetic energy of ions and cell
   ECONT  [HARTREE A.U.] - Constant of motion for the CP lagrangian
 
 Electronic velocities set to zero

   formf: eself=  5562.85116
   formf:     vps(g=0)=  -0.0000729     rhops(g=0)=  -0.0003057
   formf:     vps(g=0)=  -0.0000727     rhops(g=0)=  -0.0003050
   formf:     vps(g=0)=  -0.0000727     rhops(g=0)=  -0.0003050
   formf:     vps(g=0)=  -0.0000720     rhops(g=0)=  -0.0003028
   formf:     vps(g=0)=  -0.0000720     rhops(g=0)=  -0.0003028
   formf: sum_g vps(g)=   1.1729686 sum_g rhops(g)=  -4.3101249
   formf:     vps(g=0)=   0.0036178     rhops(g=0)=  -0.0005604
   formf:     vps(g=0)=   0.0035924     rhops(g=0)=  -0.0005591
   formf:     vps(g=0)=   0.0035924     rhops(g=0)=  -0.0005591
   formf:     vps(g=0)=   0.0035171     rhops(g=0)=  -0.0005552
   formf:     vps(g=0)=   0.0035171     rhops(g=0)=  -0.0005552
   formf: sum_g vps(g)=   9.1559870 sum_g rhops(g)=  -7.9018956
   formf:     vps(g=0)=   0.0008190     rhops(g=0)=  -0.0001019
   formf:     vps(g=0)=   0.0008121     rhops(g=0)=  -0.0001017
   formf:     vps(g=0)=   0.0008121     rhops(g=0)=  -0.0001017
   formf:     vps(g=0)=   0.0007914     rhops(g=0)=  -0.0001009
   formf:     vps(g=0)=   0.0007914     rhops(g=0)=  -0.0001009
   formf: sum_g vps(g)=   1.8172172 sum_g rhops(g)=  -1.4367083
   Delta V(G=0):   0.049659Ry,    1.351291eV
Initialize Berry phase electric field
 Additional found:           0
 Additional found:           0
 Additional found:           0
 Additional found:           0
 #not found, gtable:    2249.00000000000     
 #not found, gtabin:    2249.00000000000     
 WARNING setting to ZERO ions, electrons and cell velocities without 
 setting to ZERO all velocities could generate meaningles trajectories 
 
  nfi     ekinc              temph  tempp     etot                 enthal               econs                econt              vnhh    xnhh0   vnhp    xnhp0
      1    0.000170834048765    0.0    0.00   -2898.553644757029   -2898.553655200602   -2898.553655200602   -2898.553484366554   0.0000   0.0000   0.0000   0.0000
Elct. dipole 1   -9.047026  Ionic dipole 1    9.036582
      2    0.000646908949908    0.0    0.00   -2898.554273989444   -2898.553566932066   -2898.553566932066   -2898.552920023116   0.0000   0.0000   0.0000   0.0000
Elct. dipole 1   -8.329525  Ionic dipole 1    9.036582
      3    0.001137031805488    0.0    0.00   -2898.554989474235   -2898.553092409076   -2898.553092409076   -2898.551955377270   0.0000   0.0000   0.0000   0.0000
Elct. dipole 1   -7.139517  Ionic dipole 1    9.036582
      4    0.001340264563924    0.0    0.00   -2898.555442483974   -2898.552195163430   -2898.552195163430   -2898.550854898866   0.0000   0.0000   0.0000   0.0000
Elct. dipole 1   -5.789262  Ionic dipole 1    9.036582
      5    0.001278346194670    0.0    0.00   -2898.555629687353   -2898.551142205908   -2898.551142205908   -2898.549863859713   0.0000   0.0000   0.0000   0.0000
Elct. dipole 1   -4.549101  Ionic dipole 1    9.036582
      6    0.001093198589969    0.0    0.00   -2898.555667390827   -2898.550213373910   -2898.550213373910   -2898.549120175320   0.0000   0.0000   0.0000   0.0000
Elct. dipole 1   -3.582565  Ionic dipole 1    9.036582
      7    0.000901476074479    0.0    0.00   -2898.555669034069   -2898.549573982428   -2898.549573982428   -2898.548672506353   0.0000   0.0000   0.0000   0.0000
Elct. dipole 1   -2.941531  Ionic dipole 1    9.036582
      8    0.000746967250025    0.0    0.00   -2898.555680534917   -2898.549244827987   -2898.549244827987   -2898.548497860737   0.0000   0.0000   0.0000   0.0000
Elct. dipole 1   -2.600875  Ionic dipole 1    9.036582
      9    0.000627368919518    0.0    0.00   -2898.555695951925   -2898.549158659899   -2898.549158659899   -2898.548531290980   0.0000   0.0000   0.0000   0.0000
Elct. dipole 1   -2.499290  Ionic dipole 1    9.036582
     10    0.000544100061719    0.0    0.00   -2898.555728626447   -2898.549257504495   -2898.549257504495   -2898.548713404433   0.0000   0.0000   0.0000   0.0000
Elct. dipole 1   -2.565460  Ionic dipole 1    9.036582
     11    0.000488768327239    0.0    0.00   -2898.555781492894   -2898.549474480952   -2898.549474480952   -2898.548985712624   0.0000   0.0000   0.0000   0.0000
Elct. dipole 1   -2.729570  Ionic dipole 1    9.036582
     12    0.000433485740854    0.0    0.00   -2898.555819560890   -2898.549713435920   -2898.549713435920   -2898.549279950179   0.0000   0.0000   0.0000   0.0000
Elct. dipole 1   -2.930457  Ionic dipole 1    9.036582
     13    0.000372744482665    0.0    0.00   -2898.555835230159   -2898.549922885083   -2898.549922885083   -2898.549550140600   0.0000   0.0000   0.0000   0.0000
Elct. dipole 1   -3.124237  Ionic dipole 1    9.036582
     14    0.000325946497426    0.0    0.00   -2898.555857066303   -2898.550111016940   -2898.550111016940   -2898.549785070443   0.0000   0.0000   0.0000   0.0000
Elct. dipole 1   -3.290533  Ionic dipole 1    9.036582
     15    0.000298600689015    0.0    0.00   -2898.555893796354   -2898.550286696600   -2898.550286696600   -2898.549988095911   0.0000   0.0000   0.0000   0.0000
Elct. dipole 1   -3.429483  Ionic dipole 1    9.036582
     16    0.000279151481362    0.0    0.00   -2898.555933142471   -2898.550445867950   -2898.550445867950   -2898.550166716469   0.0000   0.0000   0.0000   0.0000
Elct. dipole 1   -3.549308  Ionic dipole 1    9.036582
     17    0.000258415570575    0.0    0.00   -2898.555966442755   -2898.550582771966   -2898.550582771966   -2898.550324356396   0.0000   0.0000   0.0000   0.0000
Elct. dipole 1   -3.652912  Ionic dipole 1    9.036582
     18    0.000234476943943    0.0    0.00   -2898.555991451855   -2898.550688363946   -2898.550688363946   -2898.550453887002   0.0000   0.0000   0.0000   0.0000
Elct. dipole 1   -3.733494  Ionic dipole 1    9.036582
     19    0.000210154838537    0.0    0.00   -2898.556011136951   -2898.550756229843   -2898.550756229843   -2898.550546075005   0.0000   0.0000   0.0000   0.0000
Elct. dipole 1   -3.781675  Ionic dipole 1    9.036582
     20    0.000188179154508    0.0    0.00   -2898.556029007210   -2898.550789307233   -2898.550789307233   -2898.550601128078   0.0000   0.0000   0.0000   0.0000
Elct. dipole 1   -3.796882  Ionic dipole 1    9.036582
     21    0.000168627357269    0.0    0.00   -2898.556044787828   -2898.550800705877   -2898.550800705877   -2898.550632078520   0.0000   0.0000   0.0000   0.0000
Elct. dipole 1   -3.792500  Ionic dipole 1    9.036582
     22    0.000153383592819    0.0    0.00   -2898.556060831050   -2898.550814200996   -2898.550814200996   -2898.550660817403   0.0000   0.0000   0.0000   0.0000
Elct. dipole 1   -3.789952  Ionic dipole 1    9.036582
     23    0.000144762203721    0.0    0.00   -2898.556082414837   -2898.550852064723   -2898.550852064723   -2898.550707302519   0.0000   0.0000   0.0000   0.0000
Elct. dipole 1   -3.806232  Ionic dipole 1    9.036582
     24    0.000139017768984    0.0    0.00   -2898.556106123187   -2898.550913923108   -2898.550913923108   -2898.550774905339   0.0000   0.0000   0.0000   0.0000
Elct. dipole 1   -3.844382  Ionic dipole 1    9.036582
     25    0.000130619832315    0.0    0.00   -2898.556124660915   -2898.550981521633   -2898.550981521633   -2898.550850901801   0.0000   0.0000   0.0000   0.0000
Elct. dipole 1   -3.893443  Ionic dipole 1    9.036582
     26    0.000119410468226    0.0    0.00   -2898.556138137813   -2898.551038357020   -2898.551038357020   -2898.550918946552   0.0000   0.0000   0.0000   0.0000
Elct. dipole 1   -3.936802  Ionic dipole 1    9.036582
     27    0.000107205360505    0.0    0.00   -2898.556148788060   -2898.551074375855   -2898.551074375855   -2898.550967170494   0.0000   0.0000   0.0000   0.0000
Elct. dipole 1   -3.962170  Ionic dipole 1    9.036582
     28    0.000094098547012    0.0    0.00   -2898.556155682191   -2898.551085767975   -2898.551085767975   -2898.550991669428   0.0000   0.0000   0.0000   0.0000
Elct. dipole 1   -3.966668  Ionic dipole 1    9.036582
     29    0.000081317512406    0.0    0.00   -2898.556160071294   -2898.551078802813   -2898.551078802813   -2898.550997485300   0.0000   0.0000   0.0000   0.0000
Elct. dipole 1   -3.955314  Ionic dipole 1    9.036582
     30    0.000071199085067    0.0    0.00   -2898.556164971723   -2898.551064429828   -2898.551064429828   -2898.550993230743   0.0000   0.0000   0.0000   0.0000
Elct. dipole 1   -3.936040  Ionic dipole 1    9.036582
     31    0.000063964437346    0.0    0.00   -2898.556171419716   -2898.551050385070   -2898.551050385070   -2898.550986420633   0.0000   0.0000   0.0000   0.0000
Elct. dipole 1   -3.915548  Ionic dipole 1    9.036582
     32    0.000058371809387    0.0    0.00   -2898.556177982599   -2898.551039408513   -2898.551039408513   -2898.550981036704   0.0000   0.0000   0.0000   0.0000
Elct. dipole 1   -3.898008  Ionic dipole 1    9.036582
     33    0.000053449079968    0.0    0.00   -2898.556184495983   -2898.551033625205   -2898.551033625205   -2898.550980176125   0.0000   0.0000   0.0000   0.0000
Elct. dipole 1   -3.885712  Ionic dipole 1    9.036582
     34    0.000048278696855    0.0    0.00   -2898.556189626243   -2898.551032765692   -2898.551032765692   -2898.550984486995   0.0000   0.0000   0.0000   0.0000
Elct. dipole 1   -3.879722  Ionic dipole 1    9.036582
     35    0.000042754735996    0.0    0.00   -2898.556192986379   -2898.551036155938   -2898.551036155938   -2898.550993401202   0.0000   0.0000   0.0000   0.0000
Elct. dipole 1   -3.879752  Ionic dipole 1    9.036582
     36    0.000037934713194    0.0    0.00   -2898.556196207300   -2898.551043593115   -2898.551043593115   -2898.551005658402   0.0000   0.0000   0.0000   0.0000
Elct. dipole 1   -3.883968  Ionic dipole 1    9.036582
     37    0.000034277304152    0.0    0.00   -2898.556199793305   -2898.551052891436   -2898.551052891436   -2898.551018614131   0.0000   0.0000   0.0000   0.0000
Elct. dipole 1   -3.889680  Ionic dipole 1    9.036582
     38    0.000031380337030    0.0    0.00   -2898.556203333822   -2898.551061554460   -2898.551061554460   -2898.551030174123   0.0000   0.0000   0.0000   0.0000
Elct. dipole 1   -3.894803  Ionic dipole 1    9.036582
     39    0.000029164681855    0.0    0.00   -2898.556207192517   -2898.551069519564   -2898.551069519564   -2898.551040354882   0.0000   0.0000   0.0000   0.0000
Elct. dipole 1   -3.898909  Ionic dipole 1    9.036582
     40    0.000027424929767    0.0    0.00   -2898.556211286316   -2898.551077556937   -2898.551077556937   -2898.551050132007   0.0000   0.0000   0.0000   0.0000
Elct. dipole 1   -3.902853  Ionic dipole 1    9.036582
     41    0.000025422940611    0.0    0.00   -2898.556214519391   -2898.551085110792   -2898.551085110792   -2898.551059687852   0.0000   0.0000   0.0000   0.0000
Elct. dipole 1   -3.907174  Ionic dipole 1    9.036582
     42    0.000022898872078    0.0    0.00   -2898.556216860626   -2898.551090953104   -2898.551090953104   -2898.551068054232   0.0000   0.0000   0.0000   0.0000
Elct. dipole 1   -3.910675  Ionic dipole 1    9.036582
     43    0.000020318148395    0.0    0.00   -2898.556218453545   -2898.551092380401   -2898.551092380401   -2898.551072062252   0.0000   0.0000   0.0000   0.0000
Elct. dipole 1   -3.910509  Ionic dipole 1    9.036582
     44    0.000018134395557    0.0    0.00   -2898.556220054091   -2898.551087360002   -2898.551087360002   -2898.551069225607   0.0000   0.0000   0.0000   0.0000
Elct. dipole 1   -3.903888  Ionic dipole 1    9.036582
     45    0.000016395111846    0.0    0.00   -2898.556221861350   -2898.551075439849   -2898.551075439849   -2898.551059044737   0.0000   0.0000   0.0000   0.0000
Elct. dipole 1   -3.890161  Ionic dipole 1    9.036582
     46    0.000014786247345    0.0    0.00   -2898.556223391690   -2898.551058473757   -2898.551058473757   -2898.551043687509   0.0000   0.0000   0.0000   0.0000
Elct. dipole 1   -3.871664  Ionic dipole 1    9.036582
     47    0.000013102308481    0.0    0.00   -2898.556224364476   -2898.551040455360   -2898.551040455360   -2898.551027353052   0.0000   0.0000   0.0000   0.0000
Elct. dipole 1   -3.852673  Ionic dipole 1    9.036582
     48    0.000011604280789    0.0    0.00   -2898.556225274060   -2898.551025879431   -2898.551025879431   -2898.551014275150   0.0000   0.0000   0.0000   0.0000
Elct. dipole 1   -3.837188  Ionic dipole 1    9.036582
     49    0.000010555797272    0.0    0.00   -2898.556226510112   -2898.551017026641   -2898.551017026641   -2898.551006470843   0.0000   0.0000   0.0000   0.0000
Elct. dipole 1   -3.827099  Ionic dipole 1    9.036582
     50    0.000009820371685    0.0    0.00   -2898.556227895917   -2898.551013190594   -2898.551013190594   -2898.551003370222   0.0000   0.0000   0.0000   0.0000
Elct. dipole 1   -3.821877  Ionic dipole 1    9.036582
     51    0.000009132022566    0.0    0.00   -2898.556229070448   -2898.551012242765   -2898.551012242765   -2898.551003110742   0.0000   0.0000   0.0000   0.0000
Elct. dipole 1   -3.819755  Ionic dipole 1    9.036582
     52    0.000008317269128    0.0    0.00   -2898.556230071727   -2898.551012835608   -2898.551012835608   -2898.551004518339   0.0000   0.0000   0.0000   0.0000
Elct. dipole 1   -3.819346  Ionic dipole 1    9.036582
     53    0.000007353332774    0.0    0.00   -2898.556230645132   -2898.551014564773   -2898.551014564773   -2898.551007211440   0.0000   0.0000   0.0000   0.0000
Elct. dipole 1   -3.820502  Ionic dipole 1    9.036582
     54    0.000006425971931    0.0    0.00   -2898.556231063704   -2898.551018412447   -2898.551018412447   -2898.551011986475   0.0000   0.0000   0.0000   0.0000
Elct. dipole 1   -3.823931  Ionic dipole 1    9.036582
     55    0.000005700599833    0.0    0.00   -2898.556231503631   -2898.551025023901   -2898.551025023901   -2898.551019323301   0.0000   0.0000   0.0000   0.0000
Elct. dipole 1   -3.830103  Ionic dipole 1    9.036582
     56    0.000005137601036    0.0    0.00   -2898.556232001683   -2898.551033815498   -2898.551033815498   -2898.551028677897   0.0000   0.0000   0.0000   0.0000
Elct. dipole 1   -3.838396  Ionic dipole 1    9.036582
     57    0.000004680537091    0.0    0.00   -2898.556232513090   -2898.551043085316   -2898.551043085316   -2898.551038404778   0.0000   0.0000   0.0000   0.0000
Elct. dipole 1   -3.847155  Ionic dipole 1    9.036582
     58    0.000004337978958    0.0    0.00   -2898.556233103932   -2898.551051044353   -2898.551051044353   -2898.551046706374   0.0000   0.0000   0.0000   0.0000
Elct. dipole 1   -3.854523  Ionic dipole 1    9.036582
     59    0.000004061881694    0.0    0.00   -2898.556233733327   -2898.551056530314   -2898.551056530314   -2898.551052468432   0.0000   0.0000   0.0000   0.0000
Elct. dipole 1   -3.859379  Ionic dipole 1    9.036582
     60    0.000003785436443    0.0    0.00   -2898.556234263901   -2898.551059374009   -2898.551059374009   -2898.551055588573   0.0000   0.0000   0.0000   0.0000
Elct. dipole 1   -3.861692  Ionic dipole 1    9.036582
     61    0.000003498552821    0.0    0.00   -2898.556234711148   -2898.551060290093   -2898.551060290093   -2898.551056791540   0.0000   0.0000   0.0000   0.0000
Elct. dipole 1   -3.862161  Ionic dipole 1    9.036582
     62    0.000003191500496    0.0    0.00   -2898.556235079501   -2898.551060057780   -2898.551060057780   -2898.551056866279   0.0000   0.0000   0.0000   0.0000
Elct. dipole 1   -3.861561  Ionic dipole 1    9.036582
     63    0.000002843233587    0.0    0.00   -2898.556235329177   -2898.551059092244   -2898.551059092244   -2898.551056249010   0.0000   0.0000   0.0000   0.0000
Elct. dipole 1   -3.860345  Ionic dipole 1    9.036582
     64    0.000002473910120    0.0    0.00   -2898.556235486733   -2898.551057647648   -2898.551057647648   -2898.551055173738   0.0000   0.0000   0.0000   0.0000
Elct. dipole 1   -3.858743  Ionic dipole 1    9.036582
     65    0.000002131727092    0.0    0.00   -2898.556235545247   -2898.551056055478   -2898.551056055478   -2898.551053923751   0.0000   0.0000   0.0000   0.0000
Elct. dipole 1   -3.857093  Ionic dipole 1    9.036582
     66    0.000001851875392    0.0    0.00   -2898.556235657412   -2898.551055071402   -2898.551055071402   -2898.551053219526   0.0000   0.0000   0.0000   0.0000
Elct. dipole 1   -3.855996  Ionic dipole 1    9.036582
     67    0.000001650982631    0.0    0.00   -2898.556235781552   -2898.551055280599   -2898.551055280599   -2898.551053629616   0.0000   0.0000   0.0000   0.0000
Elct. dipole 1   -3.856081  Ionic dipole 1    9.036582
     68    0.000001518909945    0.0    0.00   -2898.556235969562   -2898.551056945925   -2898.551056945925   -2898.551055427015   0.0000   0.0000   0.0000   0.0000
Elct. dipole 1   -3.857559  Ionic dipole 1    9.036582
     69    0.000001411549354    0.0    0.00   -2898.556236245359   -2898.551059653507   -2898.551059653507   -2898.551058241957   0.0000   0.0000   0.0000   0.0000
Elct. dipole 1   -3.859991  Ionic dipole 1    9.036582
     70    0.000001294219348    0.0    0.00   -2898.556236393570   -2898.551062311949   -2898.551062311949   -2898.551061017730   0.0000   0.0000   0.0000   0.0000
Elct. dipole 1   -3.862501  Ionic dipole 1    9.036582
     71    0.000001180221492    0.0    0.00   -2898.556236547909   -2898.551064255900   -2898.551064255900   -2898.551063075678   0.0000   0.0000   0.0000   0.0000
Elct. dipole 1   -3.864290  Ionic dipole 1    9.036582
     72    0.000001091296197    0.0    0.00   -2898.556236688674   -2898.551065165856   -2898.551065165856   -2898.551064074559   0.0000   0.0000   0.0000   0.0000
Elct. dipole 1   -3.865060  Ionic dipole 1    9.036582
     73    0.000001016983805    0.0    0.00   -2898.556236802431   -2898.551065251549   -2898.551065251549   -2898.551064234565   0.0000   0.0000   0.0000   0.0000
Elct. dipole 1   -3.865031  Ionic dipole 1    9.036582
     74    0.000000939472998    0.0    0.00   -2898.556236894302   -2898.551064920961   -2898.551064920961   -2898.551063981488   0.0000   0.0000   0.0000   0.0000
Elct. dipole 1   -3.864609  Ionic dipole 1    9.036582
     75    0.000000854401450    0.0    0.00   -2898.556236961320   -2898.551064363670   -2898.551064363670   -2898.551063509269   0.0000   0.0000   0.0000   0.0000
Elct. dipole 1   -3.863985  Ionic dipole 1    9.036582
     76    0.000000763670345    0.0    0.00   -2898.556237056689   -2898.551063499438   -2898.551063499438   -2898.551062735767   0.0000   0.0000   0.0000   0.0000
Elct. dipole 1   -3.863025  Ionic dipole 1    9.036582
     77    0.000000678104836    0.0    0.00   -2898.556237111908   -2898.551062017741   -2898.551062017741   -2898.551061339636   0.0000   0.0000   0.0000   0.0000
Elct. dipole 1   -3.861488  Ionic dipole 1    9.036582
     78    0.000000608455221    0.0    0.00   -2898.556237199256   -2898.551059967244   -2898.551059967244   -2898.551059358789   0.0000   0.0000   0.0000   0.0000
Elct. dipole 1   -3.859350  Ionic dipole 1    9.036582
     79    0.000000549062876    0.0    0.00   -2898.556237230695   -2898.551057601314   -2898.551057601314   -2898.551057052252   0.0000   0.0000   0.0000   0.0000
Elct. dipole 1   -3.856953  Ionic dipole 1    9.036582
     80    0.000000492131111    0.0    0.00   -2898.556237277080   -2898.551055551962   -2898.551055551962   -2898.551055059831   0.0000   0.0000   0.0000   0.0000
Elct. dipole 1   -3.854857  Ionic dipole 1    9.036582
     81    0.000000439149782    0.0    0.00   -2898.556237316763   -2898.551054274593   -2898.551054274593   -2898.551053835443   0.0000   0.0000   0.0000   0.0000
Elct. dipole 1   -3.853540  Ionic dipole 1    9.036582
     82    0.000000389247981    0.0    0.00   -2898.556237349483   -2898.551053934818   -2898.551053934818   -2898.551053545570   0.0000   0.0000   0.0000   0.0000
Elct. dipole 1   -3.853168  Ionic dipole 1    9.036582
     83    0.000000341253099    0.0    0.00   -2898.556237373050   -2898.551054370760   -2898.551054370760   -2898.551054029506   0.0000   0.0000   0.0000   0.0000
Elct. dipole 1   -3.853580  Ionic dipole 1    9.036582
     84    0.000000300764936    0.0    0.00   -2898.556237402129   -2898.551055263483   -2898.551055263483   -2898.551054962718   0.0000   0.0000   0.0000   0.0000
Elct. dipole 1   -3.854444  Ionic dipole 1    9.036582
     85    0.000000271473116    0.0    0.00   -2898.556237424798   -2898.551056264296   -2898.551056264296   -2898.551055992823   0.0000   0.0000   0.0000   0.0000
Elct. dipole 1   -3.855422  Ionic dipole 1    9.036582
     86    0.000000252022550    0.0    0.00   -2898.556237457185   -2898.551057137079   -2898.551057137079   -2898.551056885056   0.0000   0.0000   0.0000   0.0000
Elct. dipole 1   -3.856262  Ionic dipole 1    9.036582
     87    0.000000239220841    0.0    0.00   -2898.556237493230   -2898.551057719357   -2898.551057719357   -2898.551057480136   0.0000   0.0000   0.0000   0.0000
Elct. dipole 1   -3.856808  Ionic dipole 1    9.036582
     88    0.000000226613150    0.0    0.00   -2898.556237527063   -2898.551057948057   -2898.551057948057   -2898.551057721444   0.0000   0.0000   0.0000   0.0000
Elct. dipole 1   -3.857003  Ionic dipole 1    9.036582
     89    0.000000209553106    0.0    0.00   -2898.556237552957   -2898.551057883800   -2898.551057883800   -2898.551057674247   0.0000   0.0000   0.0000   0.0000
Elct. dipole 1   -3.856913  Ionic dipole 1    9.036582
     90    0.000000190001439    0.0    0.00   -2898.556237573733   -2898.551057724048   -2898.551057724048   -2898.551057534047   0.0000   0.0000   0.0000   0.0000
Elct. dipole 1   -3.856733  Ionic dipole 1    9.036582
     91    0.000000170325104    0.0    0.00   -2898.556237591157   -2898.551057723967   -2898.551057723967   -2898.551057553641   0.0000   0.0000   0.0000   0.0000
Elct. dipole 1   -3.856715  Ionic dipole 1    9.036582
     92    0.000000151051898    0.0    0.00   -2898.556237603798   -2898.551058059576   -2898.551058059576   -2898.551057908524   0.0000   0.0000   0.0000   0.0000
Elct. dipole 1   -3.857038  Ionic dipole 1    9.036582
     93    0.000000134190899    0.0    0.00   -2898.556237614427   -2898.551058720008   -2898.551058720008   -2898.551058585817   0.0000   0.0000   0.0000   0.0000
Elct. dipole 1   -3.857688  Ionic dipole 1    9.036582
     94    0.000000120762654    0.0    0.00   -2898.556237620074   -2898.551059492441   -2898.551059492441   -2898.551059371678   0.0000   0.0000   0.0000   0.0000
Elct. dipole 1   -3.858455  Ionic dipole 1    9.036582
     95    0.000000109376691    0.0    0.00   -2898.556237636773   -2898.551060104326   -2898.551060104326   -2898.551059994949   0.0000   0.0000   0.0000   0.0000
Elct. dipole 1   -3.859050  Ionic dipole 1    9.036582
     96    0.000000099293623    0.0    0.00   -2898.556237647912   -2898.551060329540   -2898.551060329540   -2898.551060230246   0.0000   0.0000   0.0000   0.0000
Elct. dipole 1   -3.859264  Ionic dipole 1    9.036582
     97    0.000000090198644    0.0    0.00   -2898.556237657962   -2898.551060133850   -2898.551060133850   -2898.551060043651   0.0000   0.0000   0.0000   0.0000
Elct. dipole 1   -3.859058  Ionic dipole 1    9.036582
     98    0.000000081342092    0.0    0.00   -2898.556237667905   -2898.551059627450   -2898.551059627450   -2898.551059546108   0.0000   0.0000   0.0000   0.0000
Elct. dipole 1   -3.858542  Ionic dipole 1    9.036582
     99    0.000000072994090    0.0    0.00   -2898.556237674962   -2898.551058971142   -2898.551058971142   -2898.551058898148   0.0000   0.0000   0.0000   0.0000
Elct. dipole 1   -3.857879  Ionic dipole 1    9.036582

 * Physical Quantities at step:   100

   from rhoofr: total integrated electronic density
   in g-space =   1236.000000   in r-space =  1236.000000
     Total Electronic Pressure (GPa)       40.99623    100
     Pressure of Nuclei (GPa)             0.00000    100
     Pressure Total (GPa)             0.00395    100


                total energy =    -2898.55623768213 Hartree a.u.
              kinetic energy =     1316.41032 Hartree a.u.
        electrostatic energy =    -3924.24143 Hartree a.u.
                         esr =        0.00000 Hartree a.u.
                       eself =     5562.85116 Hartree a.u.
      pseudopotential energy =      261.76050 Hartree a.u.
  n-l pseudopotential energy =      193.28055 Hartree a.u.
 exchange-correlation energy =     -745.76099 Hartree a.u.
           average potential =        0.00000 Hartree a.u.



   Eigenvalues (eV), kp =   1 , spin =  1

  -12.75  -12.59  -12.51  -12.49  -12.39  -12.39  -12.38  -12.30  -12.27  -12.26
  -12.26  -12.25  -12.20  -12.20  -12.18  -12.14  -12.13  -12.09  -12.08  -12.07
  -12.04  -12.04  -12.01  -11.98  -11.97  -11.97  -11.97  -11.93  -11.89  -11.84
  -11.83  -11.83  -11.80  -11.79  -11.79  -11.76  -11.74  -11.74  -11.73  -11.70
  -11.69  -11.69  -11.68  -11.67  -11.66  -11.66  -11.65  -11.65  -11.64  -11.62
  -11.61  -11.60  -11.59  -11.58  -11.57  -11.57  -11.56  -11.56  -11.55  -11.55
  -11.54  -11.54  -11.53  -11.53  -11.52  -11.52  -11.51  -11.51  -11.50  -11.50
  -11.50  -11.49  -11.49  -11.48  -11.48  -11.48  -11.47  -11.46  -11.46  -11.45
  -11.45  -11.45  -11.45  -11.43  -11.43  -11.42  -11.42  -11.40  -11.40  -11.40
  -11.40  -11.40  -11.39  -11.39  -11.39  -11.38  -11.38  -11.38  -11.38  -11.36
  -11.36  -11.36  -11.35  -11.35  -11.35  -11.34  -11.34  -11.33  -11.32  -11.28
  -11.28  -11.26  -11.26  -11.26  -11.25  -11.25  -11.25  -11.24  -11.24  -11.23
  -11.22  -11.22  -11.21  -11.20  -11.19  -11.19  -11.17  -11.17  -11.16  -11.16
  -11.15  -11.15  -11.14  -11.13  -11.13  -11.13  -11.13  -11.06   -1.25   -0.86
   -0.80   -0.77   -0.73   -0.72   -0.65   -0.58   -0.55   -0.55   -0.52   -0.47
   -0.38   -0.35   -0.33   -0.32   -0.27   -0.26   -0.23   -0.20   -0.20   -0.18
   -0.16   -0.16   -0.15   -0.14   -0.14   -0.11   -0.09   -0.07   -0.06   -0.06
   -0.06   -0.05   -0.03   -0.02   -0.02    0.00    0.01    0.02    0.02    0.04
    0.05    0.06    0.08    0.08    0.09    0.11    0.11    0.12    0.12    0.12
    0.13    0.14    0.14    0.16    0.16    0.17    0.20    0.21    0.22    0.24
    0.24    0.25    0.25    0.26    0.28    0.31    0.31    0.37    0.37    0.38
    0.39    0.39    0.40    0.40    0.42    0.43    0.44    0.46    0.46    0.47
    0.48    0.48    0.50    0.50    0.50    0.53    0.53    0.53    0.53    0.53
    0.54    0.56    0.56    0.56    0.57    0.57    0.58    0.60    0.60    0.60
    0.61    0.61    0.62    0.63    0.63    0.64    0.65    0.65    0.66    0.66
    0.68    0.68    0.69    0.70    0.72    0.73    0.73    0.74    0.75    0.76
    0.77    0.78    0.79    0.79    0.80    0.81    0.81    0.82    0.84    0.87
    0.88    0.89    0.90    0.90    0.92    0.92    0.93    0.94    0.95    0.96
    0.97    0.98    0.98    1.03    1.04    1.06    1.08    1.09    1.10    1.11
    1.13    1.13    1.14    1.16    1.17    1.20    1.23    1.26    1.26    1.31
    1.32    1.32    1.35    1.36    1.38    1.45    1.47    1.48    1.48    1.51
    1.51    1.53    1.54    1.55    1.57    1.58    1.58    1.59    1.62    1.64
    1.66    1.66    1.68    1.68    1.73    1.73    1.76    1.77    1.78    1.79
    1.79    1.79    1.81    1.83    1.84    1.85    1.86    1.88    1.88    1.89
    1.90    1.92    1.93    1.97    1.97    1.98    1.99    2.00    2.05    2.06
    2.11    2.13    2.13    2.15    2.17    2.17    2.18    2.18    2.19    2.20
    2.22    2.22    2.22    2.23    2.24    2.27    2.27    2.27    2.28    2.32
    2.34    2.35    2.36    2.37    2.37    2.37    2.38    2.41    2.42    2.42
    2.43    2.44    2.44    2.45    2.45    2.45    2.48    2.49    2.51    2.51
    2.51    2.52    2.53    2.53    2.54    2.54    2.54    2.55    2.56    2.56
    2.57    2.58    2.59    2.61    2.62    2.62    2.63    2.63    2.64    2.65
    2.66    2.66    2.66    2.67    2.67    2.68    2.68    2.68    2.69    2.69
    2.69    2.72    2.74    2.74    2.75    2.76    2.76    2.77    2.77    2.78
    2.79    2.80    2.82    2.82    2.83    2.85    2.85    2.87    2.87    2.89
    2.90    2.91    2.91    2.91    2.94    2.94    2.95    2.96    2.96    2.97
    2.98    2.99    3.00    3.00    3.00    3.01    3.01    3.02    3.02    3.04
    3.04    3.05    3.06    3.06    3.07    3.08    3.08    3.10    3.10    3.10
    3.10    3.11    3.11    3.12    3.12    3.13    3.14    3.14    3.15    3.15
    3.18    3.18    3.18    3.19    3.19    3.19    3.19    3.21    3.21    3.22
    3.23    3.23    3.24    3.24    3.24    3.24    3.26    3.26    3.26    3.26
    3.27    3.28    3.28    3.28    3.29    3.30    3.30    3.31    3.32    3.32
    3.32    3.33    3.33    3.34    3.34    3.35    3.36    3.37    3.38    3.38
    3.38    3.39    3.41    3.42    3.42    3.43    3.43    3.43    3.44    3.46
    3.46    3.47    3.47    3.48    3.49    3.49    3.50    3.50    3.51    3.51
    3.52    3.53    3.53    3.53    3.54    3.56    3.56    3.57    3.58    3.58
    3.58    3.58    3.60    3.61    3.61    3.63    3.63    3.64    3.64    3.65
    3.65    3.65    3.65    3.66    3.67    3.68    3.68    3.69    3.72    3.72
    3.73    3.75    3.75    3.76    3.77    3.78    3.79    3.80    3.80    3.80
    3.83    3.84    3.85    3.86    3.87    3.87    3.89    3.89    3.90    3.91
    3.91    3.91    3.92    3.93    3.94    3.97    3.98    3.98    4.00    4.04
    4.04    4.04    4.15    4.18    4.18    4.37    4.38    4.41    4.45    4.50
    4.51    4.59    4.60    4.79    6.04    6.05    6.24    6.65
 
 
   CELL_PARAMETERS
   24.54238993    0.00076119    0.00000017
    0.00076117   24.54229101    0.00000114
    0.00000023    0.00000151   32.45460222

   System Density [g/cm^3] :              3.9303364400


   System Volume [A.U.^3] :          19548.2661582366


   Center of mass square displacement (a.u.):   0.000000

   Total stress (GPa)
        0.00606937         0.00291196         0.00001297
        0.00291196         0.00599386         0.00001463
        0.00001297         0.00001462        -0.00021949
   ATOMIC_POSITIONS
   Ag      0.21309885737963E+01     0.13898194019221E+02     0.18225933203933E+02
   Ag      0.56002791283705E+01     0.10428543495406E+02     0.18225914467043E+02
   Ag      0.67307526628088E+01     0.15028187183203E+02     0.18619673280325E+02
   Ag      0.10004594987662E+01     0.92984917122244E+01     0.18619379557263E+02
   Ag      0.21501441038105E+01     0.10447901488350E+02     0.14028949401806E+02
   Ag      0.21310172733061E+01     0.13898187606816E+02     0.98318664090142E+01
   Ag      0.56002627424822E+01     0.10428578039624E+02     0.98318590295649E+01
   Ag      0.67308162929754E+01     0.15028256122347E+02     0.94381620215474E+01
   Ag      0.69402878302625E+01     0.90901134194908E+01     0.14028866376414E+02
   Ag      0.79235524566334E+00     0.15237968229790E+02     0.14028880710755E+02
   Ag      0.55819392195086E+01     0.13879648668790E+02     0.14028891591806E+02
   Ag      0.10004100796930E+01     0.92984512044625E+01     0.94385552091597E+01
   Mg      0.22239669821905E+02     0.22394642264805E+02     0.26234631194219E+02
   Mg      0.22237123615295E+02     0.18335089887892E+02     0.30256192903193E+02
   Mg      0.18172054965203E+02     0.22400325351409E+02     0.30256181808777E+02
   Mg      0.18177811037468E+02     0.18332607101975E+02     0.26234660677237E+02
   Mg      0.22168516868870E+02     0.22440732487546E+02     0.18163739881314E+02
   Mg      0.22274957795635E+02     0.18297488835330E+02     0.22181874682223E+02
   Mg      0.18173798021642E+02     0.22398897752808E+02     0.22218623013696E+02
   Mg      0.18131932543194E+02     0.18404585899034E+02     0.18163774344269E+02
   Mg      0.22168519766809E+02     0.22440714471706E+02     0.98941179333674E+01
   Mg      0.21967918030385E+02     0.18604314502223E+02     0.14029058171316E+02
   Mg      0.18113288485619E+02     0.22459792771562E+02     0.14028906695392E+02
   Mg      0.18131949050539E+02     0.18404579448408E+02     0.98940846716616E+01
   Mg      0.22239699110324E+02     0.22394622078539E+02     0.18230987687694E+01
   Mg      0.22274977336479E+02     0.18297466692093E+02     0.58759827042586E+01
   Mg      0.18173812702300E+02     0.22398878872716E+02     0.58390119534782E+01
   Mg      0.18177828573933E+02     0.18332572536901E+02     0.18230703632087E+01
   Mg      0.22183938238798E+02     0.14233781463539E+02     0.26307994392041E+02
   Mg      0.22176280562328E+02     0.10096083815171E+02     0.30256212157329E+02
   Mg      0.18155027930364E+02     0.14231097363224E+02     0.30256190783785E+02
   Mg      0.18146837699014E+02     0.10094742773323E+02     0.26269876221369E+02
   Mg      0.21819884005406E+02     0.14188172713656E+02     0.18109497003415E+02
   Mg      0.22150040854252E+02     0.10143882893503E+02     0.22310003917353E+02
   Mg      0.18142144956875E+02     0.14234181469272E+02     0.22277661905049E+02
   Mg      0.17977412706919E+02     0.10017796209101E+02     0.18214220391632E+02
   Mg      0.21819888206705E+02     0.14188150488799E+02     0.99486250128646E+01
   Mg      0.21787723842786E+02     0.10138272184298E+02     0.14029095815832E+02
   Mg      0.17915023536042E+02     0.14328898200305E+02     0.14029023248213E+02
   Mg      0.17977422995206E+02     0.10017784081715E+02     0.98437769751999E+01
   Mg      0.22183918630301E+02     0.14233777696418E+02     0.17498554955373E+01
   Mg      0.22150041713087E+02     0.10143887825584E+02     0.57478721696732E+01
   Mg      0.18142156165759E+02     0.14234180461269E+02     0.57802434177976E+01
   Mg      0.18146831554355E+02     0.10094765006949E+02     0.17879614191484E+01
   Mg      0.22240041387668E+02     0.59961248809432E+01     0.26243040685434E+02
   Mg      0.22239020587021E+02     0.19223516766645E+01     0.30256195224393E+02
   Mg      0.18166292273974E+02     0.59951151697133E+01     0.30256194998363E+02
   Mg      0.18170365430633E+02     0.19263933875667E+01     0.26236607450079E+02
   Mg      0.22075639917064E+02     0.58318326353684E+01     0.18100760860303E+02
   Mg      0.22237535368054E+02     0.19168278987150E+01     0.22218335260337E+02
   Mg      0.18160657793004E+02     0.59935960716176E+01     0.22218345509307E+02
   Mg      0.18136206241826E+02     0.18922780985287E+01     0.18156114648329E+02
   Mg      0.22075653317536E+02     0.58318418417836E+01     0.99571860317090E+01
   Mg      0.22165102238233E+02     0.18887992107838E+01     0.14028961530948E+02
   Mg      0.18132709876839E+02     0.59211575421058E+01     0.14028962153794E+02
   Mg      0.18136207320000E+02     0.18922807445127E+01     0.99015773319425E+01
   Mg      0.22240056504899E+02     0.59961415685539E+01     0.18147254387543E+01
   Mg      0.22237548574264E+02     0.19168369579261E+01     0.58393962452297E+01
   Mg      0.18160662256517E+02     0.59936136395730E+01     0.58393878925164E+01
   Mg      0.18170371222018E+02     0.19264040775062E+01     0.18210923073434E+01
   Mg      0.14103801091989E+02     0.22401305660913E+02     0.26236632626232E+02
   Mg      0.14107786281583E+02     0.18332434942526E+02     0.30256196680557E+02
   Mg      0.10034925940803E+02     0.22405324134562E+02     0.30256196095687E+02
   Mg      0.10033892033120E+02     0.18331475973453E+02     0.26243133317900E+02
   Mg      0.14138341919941E+02     0.22435965144116E+02     0.18156167340483E+02
   Mg      0.14113572956346E+02     0.18334274435023E+02     0.22218439156591E+02
   Mg      0.10036693682512E+02     0.22411100031445E+02     0.22218446032511E+02
   Mg      0.10198536904120E+02     0.18496131552827E+02     0.18101057106761E+02
   Mg      0.14138334781501E+02     0.22435959714865E+02     0.99015283820906E+01
   Mg      0.14141652240101E+02     0.18407284455997E+02     0.14028961641529E+02
   Mg      0.10109604878253E+02     0.22439367204844E+02     0.14028960896100E+02
   Mg      0.10198526000897E+02     0.18496119673553E+02     0.99568972832175E+01
   Mg      0.14103787689100E+02     0.22401297455797E+02     0.18210675500163E+01
   Mg      0.14113563059619E+02     0.18334256348385E+02     0.58392962480153E+01
   Mg      0.10036671048730E+02     0.22411094641280E+02     0.58392883679420E+01
   Mg      0.10033874030456E+02     0.18331457746535E+02     0.18146380182072E+01
   Mg      0.14127148616715E+02     0.14232641708081E+02     0.26269920822964E+02
   Mg      0.14118916905322E+02     0.10096158481081E+02     0.30256187545055E+02
   Mg      0.10097463735215E+02     0.14231178944156E+02     0.30256210197317E+02
   Mg      0.10089826491736E+02     0.10093589476145E+02     0.26307965625194E+02
   Mg      0.14296639471513E+02     0.14310437315281E+02     0.18214190220776E+02
   Mg      0.14131869494811E+02     0.10093513154330E+02     0.22277673086981E+02
   Mg      0.10123922427960E+02     0.14183801370472E+02     0.22310069229858E+02
   Mg      0.10454015447224E+02     0.10140401773318E+02     0.18109471518044E+02
   Mg      0.14296627761962E+02     0.14310444750742E+02     0.98438097709184E+01
   Mg      0.14359295941966E+02     0.99995587452084E+01     0.14029025385448E+02
   Mg      0.10486624030026E+02     0.14190646935880E+02     0.14029097598352E+02
   Mg      0.10454013597526E+02     0.10140423074487E+02     0.99486500350044E+01
   Mg      0.14127155919908E+02     0.14232614641982E+02     0.17879141911001E+01
   Mg      0.14131857570612E+02     0.10093508342308E+02     0.57802286118101E+01
   Mg      0.10123931117111E+02     0.14183783026129E+02     0.57477895601557E+01
   Mg      0.10089846266476E+02     0.10093585258154E+02     0.17498746909470E+01
   Mg      0.14096263758660E+02     0.59949912265884E+01     0.26234642278324E+02
   Mg      0.14102055849192E+02     0.19273214694952E+01     0.30256178228762E+02
   Mg      0.10036731782602E+02     0.59924330782486E+01     0.30256188546046E+02
   Mg      0.10034316671178E+02     0.19330633464825E+01     0.26234665924874E+02
   Mg      0.14142217257574E+02     0.59237397775936E+01     0.18163756499939E+02
   Mg      0.14100536605024E+02     0.19290318213406E+01     0.22218631008080E+02
   Mg      0.99990583204815E+01     0.60302218696348E+01     0.22181898653240E+02
   Mg      0.10106111403220E+02     0.18871922338833E+01     0.18163789270609E+02
   Mg      0.14142199429029E+02     0.59237445288420E+01     0.98941020556836E+01
   Mg      0.14161362843041E+02     0.18686176612877E+01     0.14028905544300E+02
   Mg      0.10305990428980E+02     0.57233886307120E+01     0.14029057550863E+02
   Mg      0.10106104018899E+02     0.18872118169185E+01     0.98940669706388E+01
   Mg      0.14096241222326E+02     0.59950235046787E+01     0.18230827265076E+01
   Mg      0.14100511950269E+02     0.19290533263518E+01     0.58390010289017E+01
   Mg      0.99990367597752E+01     0.60302431086869E+01     0.58759577839412E+01
   Mg      0.10034281951962E+02     0.19330841879814E+01     0.18230583750630E+01
   Mg      0.59350360810450E+01     0.22424781411670E+02     0.26269914765248E+02
   Mg      0.59335404088628E+01     0.18395167706508E+02     0.30256210833525E+02
   Mg      0.17984206921415E+01     0.22416595218880E+02     0.30256190202683E+02
   Mg      0.17958965468376E+01     0.18387544818386E+02     0.26307958248248E+02
   Mg      0.60127439020164E+01     0.22594197401346E+02     0.18214179084927E+02
   Mg      0.58861246684860E+01     0.18421514487006E+02     0.22310038668833E+02
   Mg      0.17958048455321E+01     0.22429602730772E+02     0.22277668609261E+02
   Mg      0.18427440669498E+01     0.18751797300515E+02     0.18109432884189E+02
   Mg      0.60127514040122E+01     0.22594189573981E+02     0.98438153206970E+01
   Mg      0.58931468491313E+01     0.18784306967183E+02     0.14029093799535E+02
   Mg      0.17018673563853E+01     0.22656929456715E+02     0.14029025002988E+02
   Mg      0.18427623701356E+01     0.18751797395909E+02     0.99486872542779E+01
   Mg      0.59350103305504E+01     0.22424789218725E+02     0.17879188311662E+01
   Mg      0.58861058362970E+01     0.18421526331302E+02     0.57478208902564E+01
   Mg      0.17957996303504E+01     0.22429592469406E+02     0.57802337127834E+01
   Mg      0.17958943914986E+01     0.18387560676630E+02     0.17498879834220E+01
   Mg      0.59962322623616E+01     0.14293954014332E+02     0.26465853967354E+02
   Mg      0.59692580432670E+01     0.10059552118760E+02     0.30256251090109E+02
   Mg      0.17619273976821E+01     0.14266944578259E+02     0.30256256144036E+02
   Mg      0.17349537390295E+01     0.10032588757019E+02     0.26465831947703E+02
   Mg      0.59023260882657E+01     0.10126692903512E+02     0.22757980998251E+02
   Mg      0.18289646988243E+01     0.14199933881694E+02     0.22757989537678E+02
   Mg      0.59962385755066E+01     0.14293957912970E+02     0.15921074952682E+01
   Mg      0.59023648349843E+01     0.10126646203189E+02     0.52998883097524E+01
   Mg      0.18289267086209E+01     0.14199965681736E+02     0.52998951777099E+01
   Mg      0.17349471038423E+01     0.10032578929983E+02     0.15921400094049E+01
   Mg      0.59353863066781E+01     0.59391819838568E+01     0.26307987178747E+02
   Mg      0.59327340824719E+01     0.19103000323512E+01     0.30256185447098E+02
   Mg      0.17976184927259E+01     0.59315358851908E+01     0.30256209822694E+02
   Mg      0.17962473992824E+01     0.19021788294268E+01     0.26269865670586E+02
   Mg      0.58897077506080E+01     0.55751904149059E+01     0.18109482125917E+02
   Mg      0.59357819451774E+01     0.18974385337945E+01     0.22277665673158E+02
   Mg      0.18454272870890E+01     0.59054820543341E+01     0.22309962490147E+02
   Mg      0.17193640319307E+01     0.17329624760703E+01     0.18214205216184E+02
   Mg      0.58896816931649E+01     0.55751975708019E+01     0.99486355093468E+01
   Mg      0.60304557220997E+01     0.16704992162382E+01     0.14029020477650E+02
   Mg      0.18395980141461E+01     0.55431390189740E+01     0.14029094914104E+02
   Mg      0.17193508671263E+01     0.17329723378176E+01     0.98437874054613E+01
   Mg      0.59353858728644E+01     0.59391594343048E+01     0.17498516810503E+01
   Mg      0.59357808052315E+01     0.18974530227124E+01     0.57802326675874E+01
   Mg      0.18454329788552E+01     0.59054857445423E+01     0.57479103295742E+01
   Mg      0.17962712626024E+01     0.19021739591638E+01     0.17879689871168E+01
   O       0.18170960763279E+02     0.18327643368232E+02     0.30256273076340E+02
   O       0.18172558465991E+02     0.22399841933350E+02     0.26237523504132E+02
   O       0.22249374121516E+02     0.18322941942089E+02     0.26241981934089E+02
   O       0.22244504448396E+02     0.22401398469723E+02     0.30256269256925E+02
   O       0.18178193880730E+02     0.18334574242526E+02     0.22209186011619E+02
   O       0.18149044697567E+02     0.22424269863640E+02     0.18142991484156E+02
   O       0.22174001587542E+02     0.18398652155825E+02     0.18093797608364E+02
   O       0.22238034665331E+02     0.22394385098953E+02     0.22209057893466E+02
   O       0.18084904132479E+02     0.18446586497127E+02     0.14029030405755E+02
   O       0.18149040902665E+02     0.22424261186005E+02     0.99146486237468E+01
   O       0.22173998327666E+02     0.18398657983022E+02     0.99643632219560E+01
   O       0.22127149414800E+02     0.22487488224909E+02     0.14029032851289E+02
   O       0.18178237797802E+02     0.18334500905308E+02     0.58485058372235E+01
   O       0.18172576916265E+02     0.22399820158919E+02     0.18201996985390E+01
   O       0.22249425641702E+02     0.18322882996050E+02     0.18157909046820E+01
   O       0.22238094692078E+02     0.22394342778940E+02     0.58486383699039E+01
   O       0.18144187984848E+02     0.10100007609576E+02     0.30256277664379E+02
   O       0.18160896528766E+02     0.14229106678189E+02     0.26267535062816E+02
   O       0.22184366913935E+02     0.10101779460176E+02     0.26305939246553E+02
   O       0.22199416416304E+02     0.14225964658999E+02     0.30256285737802E+02
   O       0.18128619849991E+02     0.10096545907068E+02     0.22283061128196E+02
   O       0.18044948527232E+02     0.14316039010182E+02     0.18231261274891E+02
   O       0.21635944661063E+02     0.10152429912466E+02     0.18107559526361E+02
   O       0.22194665188517E+02     0.14218196584858E+02     0.22277882630096E+02
   O       0.18024745272102E+02     0.99868152029692E+01     0.14029158647509E+02
   O       0.18044944147170E+02     0.14316064011323E+02     0.98270016260320E+01
   O       0.21635940072938E+02     0.10152443357251E+02     0.99507190704210E+01
   O       0.21501866746400E+02     0.14130626793808E+02     0.14029234481012E+02
   O       0.18128614487055E+02     0.10096577798924E+02     0.57750317249488E+01
   O       0.18160891805724E+02     0.14229063325868E+02     0.17902457294770E+01
   O       0.22184380945563E+02     0.10101814879697E+02     0.17518739205778E+01
   O       0.22194634543042E+02     0.14218173136066E+02     0.57802063887802E+01
   O       0.18170469418094E+02     0.19264504969737E+01     0.30256268103770E+02
   O       0.18170559278378E+02     0.59974769707289E+01     0.26235808861901E+02
   O       0.22241368952911E+02     0.19265729147447E+01     0.26235791299945E+02
   O       0.22240889585813E+02     0.59969980942744E+01     0.30256277507140E+02
   O       0.18167777299814E+02     0.19237625351843E+01     0.22211008239543E+02
   O       0.18119135410024E+02     0.59081915602030E+01     0.18143884713299E+02
   O       0.22152274547208E+02     0.18753957094346E+01     0.18143879833944E+02
   O       0.22250672104272E+02     0.60069622245375E+01     0.22180295630245E+02
   O       0.18151946500710E+02     0.19079226549788E+01     0.14028957981837E+02
   O       0.18119142015785E+02     0.59081924437889E+01     0.99138426338242E+01
   O       0.22152272186103E+02     0.18753949524274E+01     0.99138453733787E+01
   O       0.22188927616753E+02     0.59450689563583E+01     0.14029082306122E+02
   O       0.18167781626305E+02     0.19237797006238E+01     0.58465767818321E+01
   O       0.18170571722259E+02     0.59975415993397E+01     0.18219774322272E+01
   O       0.22241430287588E+02     0.19265940768507E+01     0.18219932798881E+01
   O       0.22250721745783E+02     0.60070178801196E+01     0.58774753961909E+01
   O       0.10033031382201E+02     0.18330516425296E+02     0.30256288923003E+02
   O       0.10032627347973E+02     0.22401017713052E+02     0.26235905737721E+02
   O       0.14103478978717E+02     0.18330061946451E+02     0.26235897625958E+02
   O       0.14103596573711E+02     0.22401094077831E+02     0.30256262887988E+02
   O       0.10023588548797E+02     0.18321065373592E+02     0.22180718345467E+02
   O       0.10122488904065E+02     0.22452870358289E+02     0.18144064114452E+02
   O       0.14155330319498E+02     0.18420175725299E+02     0.18144039450512E+02
   O       0.14106652844192E+02     0.22404185344728E+02     0.22211089533264E+02
   O       0.10085119388381E+02     0.18382789405828E+02     0.14029074007441E+02
   O       0.10122480405978E+02     0.22452858185471E+02     0.99136620147410E+01
   O       0.14155320828265E+02     0.18420173120193E+02     0.99136874322809E+01
   O       0.14122755262026E+02     0.22420538340214E+02     0.14028949803683E+02
   O       0.10023521292173E+02     0.18321006268132E+02     0.58770587530262E+01
   O       0.10032561111515E+02     0.22401007048723E+02     0.18218846087659E+01
   O       0.14103461702577E+02     0.18329994089102E+02     0.18218913324201E+01
   O       0.14106631784301E+02     0.22404169348156E+02     0.58464971915892E+01
   O       0.10073982333277E+02     0.10101109597576E+02     0.30256277115428E+02
   O       0.10089162702360E+02     0.14225359164203E+02     0.26305984045245E+02
   O       0.14113055766870E+02     0.10098046983950E+02     0.26267487083819E+02
   O       0.14129896220440E+02     0.14226983212887E+02     0.30256274512658E+02
   O       0.10078753300281E+02     0.10109278763733E+02     0.22277786992119E+02
   O       0.10638059959609E+02     0.14176681488451E+02     0.18107999185871E+02
   O       0.14228902444050E+02     0.10012739658851E+02     0.18231353910518E+02
   O       0.14145687958457E+02     0.14230719260409E+02     0.22283250645068E+02
   O       0.10772768062173E+02     0.10199041254762E+02     0.14029241338300E+02
   O       0.10638062211587E+02     0.14176665771752E+02     0.99502967585575E+01
   O       0.14228906477393E+02     0.10012719878745E+02     0.98269038926945E+01
   O       0.14249517458723E+02     0.14342029047266E+02     0.14029162452098E+02
   O       0.10078788430571E+02     0.10109293628136E+02     0.57802918243085E+01
   O       0.10089151786008E+02     0.14225315892218E+02     0.17518250695553E+01
   O       0.14113058470444E+02     0.10098081488863E+02     0.17902894709307E+01
   O       0.14145693149611E+02     0.14230675995615E+02     0.57748381479300E+01
   O       0.10029459602439E+02     0.19261621832908E+01     0.30256262674300E+02
   O       0.10024656632544E+02     0.60047573595939E+01     0.26241995195877E+02
   O       0.14101567097590E+02     0.19277697152355E+01     0.26237534511068E+02
   O       0.14103059411588E+02     0.59999623154491E+01     0.30256262808502E+02
   O       0.10036307818857E+02     0.19333374729017E+01     0.22209222961518E+02
   O       0.10100031090616E+02     0.59291594546522E+01     0.18093810698103E+02
   O       0.14125745476856E+02     0.19042524670642E+01     0.18142995582577E+02
[...]
   Mg     -0.92578650294228E-04     0.10959350464867E-03     0.23294429440646E-02
   Mg     -0.63826074166432E-04     0.63229266050435E-04     0.19968423352793E-02
   Mg     -0.47251429969301E-03     0.47139876659721E-03     0.21516094148625E-02
   Mg     -0.11093130777424E-03     0.91181094476064E-04     0.23294515270719E-02
   Mg      0.68858883853401E-04     0.97825017934679E-04     0.24019973568099E-02
   Mg     -0.19042757066714E-06    -0.19530585095369E-05     0.27241542520593E-02
   Mg      0.25988504979357E-05    -0.39077480887781E-05     0.25488675872184E-02
   Mg     -0.90507325539120E-04     0.20574657847294E-03     0.27930074412680E-02
   Mg      0.69863650590422E-04     0.28514767066901E-03     0.16423945548823E-02
   Mg      0.30321817098206E-03     0.87844697715100E-03     0.24028831508286E-02
   Mg     -0.55232713154775E-04     0.38120926058786E-03     0.20201510203250E-02
   Mg     -0.15911161846922E-03     0.90972082994532E-03     0.11283309410798E-02
   Mg     -0.27358108487904E-04    -0.25731724343705E-03     0.16071764774720E-02
   Mg      0.60525719754148E-04     0.27283212050932E-04     0.80666713048640E-03
   Mg     -0.10229715108526E-04     0.11084693822194E-05     0.14283831688697E-02
   Mg      0.21911088755027E-03    -0.85001175029903E-03     0.11257424511237E-02
   Mg     -0.67121630603725E-04    -0.91218663673194E-04     0.23678228272171E-02
   Mg     -0.25547392394558E-03    -0.81496148987572E-03     0.23573530371652E-02
   Mg      0.55583877898739E-04    -0.35647072900836E-03     0.19739585135952E-02
   Mg      0.93621883611465E-04    -0.21013965101200E-03     0.27456751909821E-02
   Mg      0.13199961858178E-03     0.13193617370261E-03     0.30775599544473E-02
   Mg     -0.42680961336226E-05     0.23622847209830E-05     0.29120480869660E-02
   Mg      0.25252452383022E-05    -0.44364708738335E-05     0.29120467088288E-02
   Mg     -0.13343450699832E-03    -0.13370599643174E-03     0.30774422932770E-02
   Mg      0.37069287533989E-03    -0.37166636636756E-03     0.31831831759187E-02
   Mg     -0.37156466864080E-03     0.37036225268947E-03     0.31831351639241E-02
   Mg     -0.13630466111175E-03    -0.13638626798082E-03     0.29920560875939E-02
   Mg     -0.32932826598691E-03     0.32808832946699E-03     0.30323931317087E-02
   Mg      0.32822730789212E-03    -0.32957804519878E-03     0.30323750865408E-02
   Mg      0.13477849664629E-03     0.13453342620958E-03     0.29925193507585E-02
   Mg      0.89190281621011E-04    -0.20748181028493E-03     0.27929542815680E-02
   Mg     -0.39878418170668E-05     0.20855563699648E-05     0.25488278645985E-02
   Mg     -0.12933252384526E-05     0.18126947976210E-06     0.27241425811288E-02
   Mg     -0.69926804851358E-04    -0.99450134876265E-04     0.24019193270921E-02
   Mg      0.15984182612698E-03    -0.91119802407525E-03     0.11282212915652E-02
   Mg      0.54700850866968E-04    -0.38254574891253E-03     0.20202261803102E-02
   Mg     -0.30382292041057E-03    -0.87982937324836E-03     0.24024646740357E-02
   Mg     -0.69794550010716E-04    -0.28636202424255E-03     0.16422731582668E-02
   Mg     -0.21872255989107E-03     0.84876621007699E-03     0.11255676740050E-02
   Mg      0.10879159997829E-04    -0.15215161066776E-05     0.14283421655565E-02
   Mg     -0.60098515836362E-04    -0.27670645978604E-04     0.80630395940937E-03
   Mg      0.27650064775477E-04     0.25632699024062E-03     0.16073281295245E-02
   Mg     -0.94916317750361E-04     0.20842653820372E-03     0.27456869650378E-02
   Mg     -0.56058458148273E-04     0.35515759313429E-03     0.19739824304220E-02
   Mg      0.25497775345268E-03     0.81383003928172E-03     0.23577758338888E-02
   Mg      0.66027457511929E-04     0.89627280654073E-04     0.23679751136398E-02
   O       0.12029456823013E-04    -0.12614289928617E-04    -0.24970013455580E-02
   O       0.50998366151794E-04    -0.52085869568750E-04    -0.22700470559434E-02
   O       0.21795066408024E-03    -0.21957379113775E-03    -0.25624880420269E-02
   O       0.10676305547524E-04    -0.14050775730400E-04    -0.24970117162581E-02
   O       0.19339775312736E-03    -0.20364580195286E-03    -0.20108405388973E-02
   O       0.84806707907146E-04    -0.83837241474383E-04    -0.16732854495528E-02
   O       0.46938841453104E-03    -0.46944769981198E-03    -0.14249257874011E-02
   O       0.20320754739706E-03    -0.19429567168183E-03    -0.20110361777947E-02
   O       0.15043879233994E-04     0.32133221072005E-06    -0.14321867411992E-02
   O      -0.80731378656081E-04     0.81474780395997E-04    -0.17384928137149E-02
   O      -0.44187438205389E-03     0.44182717043538E-03    -0.13914105186293E-02
   O       0.82908074474156E-06    -0.16270594877596E-04    -0.14321842348989E-02
   O      -0.16608888858287E-03     0.20229156711421E-03    -0.20688026585942E-02
   O      -0.39133992026310E-04     0.37982665215628E-04    -0.23365096656050E-02
   O      -0.18829844356492E-03     0.18659732307153E-03    -0.25659292765169E-02
   O      -0.20286575466203E-03     0.16515215315627E-03    -0.20684448054688E-02
   O       0.87423459965092E-06     0.14184493146372E-05    -0.26082039702428E-02
   O       0.20929746083560E-03    -0.57197206128843E-04    -0.25307714591362E-02
   O       0.37432523432358E-03     0.13063585016435E-03    -0.27472347241827E-02
   O       0.16442494231467E-04    -0.11258772386713E-04    -0.27216033789107E-02
   O       0.21475585484421E-03     0.11812193119564E-03    -0.20717543520946E-02
   O       0.20863833295277E-03    -0.84238431793026E-04    -0.15439447386831E-02
   O       0.91858003823627E-03     0.11999414533661E-03    -0.12441429142683E-02
   O       0.12459894166775E-02    -0.22575646649621E-03    -0.28048284318804E-02
   O      -0.16030707302496E-04    -0.72263100371828E-04    -0.12768345451667E-02
   O      -0.17932900419592E-03     0.92036249900250E-04    -0.15663901194446E-02
   O      -0.94444643912804E-03    -0.26644413110131E-03    -0.13157413090410E-02
   O       0.19281155849161E-04    -0.18881778676052E-03    -0.10592053200005E-02
   O      -0.23092398292145E-03    -0.13300948235453E-03    -0.20997740173191E-02
   O      -0.18976525627754E-03     0.42992216584085E-04    -0.25422369472934E-02
   O      -0.35088349506193E-03    -0.13703715203226E-03    -0.27347591081707E-02
   O      -0.11859772321665E-02     0.19191614966689E-03    -0.27403071366187E-02
   O       0.29926868775779E-06    -0.26323720142549E-06    -0.23954502203598E-02
   O       0.68439837457584E-04     0.95835604166942E-04    -0.23533215448180E-02
   O       0.96663575278048E-04     0.68220372812574E-04    -0.23534839386903E-02
   O       0.28373035414193E-05     0.23249745322615E-05    -0.26069062503510E-02
   O       0.69772730173637E-04     0.69597476053673E-04    -0.19732012541653E-02
   O       0.10379873741343E-03     0.13526893595948E-03    -0.16054908771324E-02
   O       0.13475211184265E-03     0.10392335203842E-03    -0.16056289769359E-02
   O       0.45467874352121E-03     0.45502171699371E-03    -0.21754446528014E-02
   O      -0.11289718702006E-04    -0.11199256216527E-04    -0.15636998035167E-02
   O      -0.14222112814353E-03    -0.18725621389804E-03    -0.16721205248021E-02
   O      -0.18777397700737E-03    -0.14204921977176E-03    -0.16721382648519E-02
   O      -0.18352030214671E-04    -0.18075244454385E-04    -0.11666222589092E-02
   O      -0.87266427697566E-04    -0.87438136377235E-04    -0.20777584824408E-02
   O      -0.84528998430752E-04    -0.93399320647990E-04    -0.24019564891485E-02
   O      -0.92500243526427E-04    -0.84709622703594E-04    -0.24017849166727E-02
   O      -0.48603097897789E-03    -0.48561499772763E-03    -0.22520514259089E-02
   O      -0.44792188856327E-05    -0.47496367637958E-05    -0.26069049938585E-02
   O      -0.97421136866464E-04    -0.69975214893359E-04    -0.23531445617877E-02
   O      -0.69490292793662E-04    -0.97804534570469E-04    -0.23530252780617E-02
   O      -0.13245770358316E-05    -0.18227198685498E-05    -0.23954624552486E-02
   O      -0.45568927472071E-03    -0.45624285354817E-03    -0.21741165165149E-02
   O      -0.13308371138790E-03    -0.10410227777089E-03    -0.16052887326705E-02
   O      -0.10428568640865E-03    -0.13366490472000E-03    -0.16052980703036E-02
   O      -0.69258400541848E-04    -0.69686620613524E-04    -0.19727614316628E-02
   O       0.19454857939767E-04     0.19534118903698E-04    -0.11667644164143E-02
   O       0.18931933580356E-03     0.14172162346037E-03    -0.16725670170478E-02
   O       0.14150037374881E-03     0.18874977735289E-03    -0.16725556195439E-02
   O       0.13287205927099E-04     0.13483903012115E-04    -0.15637829207204E-02
   O       0.48448813761810E-03     0.48399899585956E-03    -0.22532025362233E-02
   O       0.91705874573927E-04     0.82848831251576E-04    -0.24021269746902E-02
   O       0.83293703549634E-04     0.91370340189933E-04    -0.24021288552390E-02
   O       0.87527015578034E-04     0.87091635638874E-04    -0.20782295108816E-02
   O      -0.18863744579894E-04     0.82751399600800E-05    -0.27216554753320E-02
   O      -0.37622480800470E-03    -0.13311331916398E-03    -0.27468355283035E-02
   O      -0.21136061635372E-03     0.54795850099677E-04    -0.25307707447424E-02
   O      -0.29415469034588E-05    -0.44808908592646E-05    -0.26081976687774E-02
   O      -0.12476247322376E-02     0.22529340247377E-03    -0.28049813272752E-02
   O      -0.92066023545339E-03    -0.11756489190214E-03    -0.12442775700105E-02
   O      -0.21048264247869E-03     0.86055857953982E-04    -0.15436885500668E-02
   O      -0.21640740665343E-03    -0.11882522979785E-03    -0.20715949372790E-02
   O      -0.19854327966730E-04     0.18771210532646E-03    -0.10590582046416E-02
   O       0.94167143572772E-03     0.26894143924973E-03    -0.13158454717075E-02
   O       0.17723085049428E-03    -0.90199465960770E-04    -0.15666445063913E-02
   O       0.15386950370053E-04     0.71624656923576E-04    -0.12770226940690E-02
   O       0.11841735292054E-02    -0.19268574090613E-03    -0.27402829646637E-02
   O       0.34877420594113E-03     0.13452938474584E-03    -0.27352453858099E-02
   O       0.18764140706546E-03    -0.45535159799830E-04    -0.25420943052147E-02
   O       0.22907890544708E-03     0.13207026683977E-03    -0.20999534832767E-02
   O      -0.12180169138644E-04     0.11554239636543E-04    -0.24970086474689E-02
   O      -0.21942853602668E-03     0.21749109062086E-03    -0.25624728487961E-02
   O      -0.51772570671769E-04     0.50442744207456E-04    -0.22700120978821E-02
   O      -0.13848527620920E-04     0.10137601924688E-04    -0.24970059631294E-02
   O      -0.20330950931982E-03     0.19302829240446E-03    -0.20107494852238E-02
   O      -0.46953754666683E-03     0.46950733868931E-03    -0.14248174385407E-02
   O      -0.83660150162486E-04     0.84853029679902E-04    -0.16733068349460E-02
   O      -0.19437046131947E-03     0.20294689868845E-03    -0.20109197537760E-02
   O       0.53187961890312E-06     0.16859608665638E-04    -0.14322051800930E-02
   O       0.44172449142768E-03    -0.44172812164919E-03    -0.13914967799247E-02
   O       0.81620906934004E-04    -0.80489684290692E-04    -0.17386210775073E-02
   O      -0.15086320452825E-04     0.11978619103245E-05    -0.14321616935008E-02
   O       0.20258960710064E-03    -0.16642890824948E-03    -0.20687728464587E-02
   O       0.18676414323830E-03    -0.18869750851158E-03    -0.25659875052270E-02
   O       0.38272503316308E-04    -0.39648431260871E-04    -0.23365751882301E-02
   O       0.16503197454516E-03    -0.20307984845555E-03    -0.20686575655138E-02
   O       0.84526358845942E-05    -0.19048172710130E-04    -0.27216620768243E-02
   O       0.55209116473255E-04    -0.21137640563541E-03    -0.25309165605184E-02
   O      -0.13301895572411E-03    -0.37625785521581E-03    -0.27468994789511E-02
   O      -0.40316360773180E-05    -0.31659050842427E-05    -0.26082483737950E-02
   O       0.22543104114015E-03    -0.12474218659892E-02    -0.28053270051798E-02
   O       0.86046235573683E-04    -0.21010997498719E-03    -0.15440380750451E-02
   O      -0.11576061976450E-03    -0.92079108496672E-03    -0.12435511951596E-02
   O      -0.11859675768650E-03    -0.21649086439519E-03    -0.20718546813663E-02
   O       0.19266149215937E-03    -0.19411577377493E-04    -0.10589803188411E-02
   O      -0.90226306467752E-04     0.17768723376715E-03    -0.15662365247933E-02
   O       0.27076674762151E-03     0.94181397726822E-03    -0.13165640454004E-02
   O       0.73616895536748E-04     0.16155531253490E-04    -0.12769068851110E-02
   O      -0.19262511912465E-03     0.11844977647018E-02    -0.27400894954039E-02
   O      -0.45180698831117E-04     0.18762618443828E-03    -0.25420746607833E-02
   O       0.13464691954196E-03     0.34871675178411E-03    -0.27352259927551E-02
   O       0.13225676473013E-03     0.22907208583850E-03    -0.20996737382061E-02
   O       0.56618704269646E-05     0.52596179120951E-05    -0.28237065831253E-02
   O       0.22274709652433E-03    -0.22539680843440E-03    -0.29903430567740E-02
   O      -0.22515105455629E-03     0.22259216516258E-03    -0.29902657340796E-02
   O      -0.82194632499370E-05    -0.82967594507578E-05    -0.28237902410843E-02
   O       0.49184211123725E-03     0.49129849669453E-03    -0.34448377199363E-02
   O      -0.49340849085288E-03    -0.49313511864420E-03    -0.34437486502236E-02
   O      -0.46298325746550E-03    -0.46354958905410E-03    -0.32212338124136E-02
   O      -0.20088292518262E-03     0.19804675285353E-03    -0.29330941853011E-02
   O       0.19834627955697E-03    -0.20103145286859E-03    -0.29330924285524E-02
   O       0.46075148964265E-03     0.46098039335510E-03    -0.32221288903860E-02
   O       0.21854620203351E-05     0.65453665034249E-06    -0.26082290499574E-02
   O       0.13126879075015E-03     0.37404112374739E-03    -0.27473084580273E-02
   O      -0.56658055985682E-04     0.20897903881142E-03    -0.25309129065889E-02
   O      -0.10733508455528E-04     0.16224647262132E-04    -0.27216509950353E-02
   O       0.11854522310026E-03     0.21494707116918E-03    -0.20721913862750E-02
   O       0.11831367879413E-03     0.91955320599899E-03    -0.12432979602841E-02
   O      -0.84001195243132E-04     0.20896284811052E-03    -0.15441933803383E-02
   O      -0.22549915270045E-03     0.12456097370450E-02    -0.28049425262629E-02
   O      -0.74186414538111E-04    -0.15840347127338E-04    -0.12768341703630E-02
   O      -0.26809711764791E-03    -0.94369321987422E-03    -0.13166488354998E-02
   O       0.92222500771420E-04    -0.17900074684268E-03    -0.15660799305052E-02
   O      -0.19375354974129E-03     0.19708378971623E-04    -0.10591045641438E-02
   O      -0.13256010957049E-03    -0.23077583386831E-03    -0.20994708084674E-02
   O      -0.13643986931209E-03    -0.35108366864589E-03    -0.27347278689698E-02
   O       0.43535004498937E-04    -0.19006096095114E-03    -0.25422099169284E-02
   O       0.19240256127952E-03    -0.11861845648116E-02    -0.27402221575016E-02
 


   Partial temperatures (for each ionic specie) 
   Species  Temp (K)   Mean Square Displacement (a.u.)
        1   0.00E+00     0.0000E+00
        2   0.00E+00     0.0000E+00
        3   0.00E+00     0.0000E+00
    120    0.000000009325487    0.0    0.00   -2898.556237743461   -2898.551058077113   -2898.551058077113   -2898.551058067788   0.0000   0.0000   0.0000   0.0000
Elct. dipole 1   -3.856916  Ionic dipole 1    9.036582

   writing restart file (with schema): ./Ag16_334_58.save/
     restart      :      6.32s CPU      7.12s WALL (       2 calls)


   Averaged Physical Quantities
                      accumulated      this run
   ekinc         :        0.00011       0.00011 (AU)
   ekin          :     1316.41045    1316.41045 (AU)
   epot          :    -4408.24201   -4408.24201 (AU)
   total energy  :    -2898.55611   -2898.55611 (AU)
   temperature   :        0.00000       0.00000 (K )
   enthalpy      :    -2898.55099   -2898.55099 (AU)
   econs         :    -2898.55099   -2898.55099 (AU)
   pressure      :        0.00387       0.00387 (Gpa)
   volume        :    19548.26616   19548.26616 (AU)



     Called by MAIN_LOOP:
     initialize   :     30.78s CPU     19.11s WALL (       1 calls)
     main_loop    :  11843.41s CPU   8522.78s WALL (     120 calls)
     cpr_total    :  11849.75s CPU   8529.93s WALL (       1 calls)

     Called by INIT_RUN:
     init_readfil :      6.75s CPU      6.64s WALL (       1 calls)

     Called by CPR:
     cpr_md       :  11849.75s CPU   8529.93s WALL (     120 calls)
     move_electro :  11444.05s CPU   8187.47s WALL (     120 calls)

     Called by move_electrons:
     rhoofr       :    173.77s CPU     88.75s WALL (     120 calls)
     vofrho       :     16.69s CPU      8.66s WALL (     120 calls)
     dforce       :    484.49s CPU    250.75s WALL (   37080 calls)
     calphi       :      3.54s CPU      3.58s WALL (     120 calls)
     newd         :    134.65s CPU     68.40s WALL (     120 calls)
     nlfl         :     83.13s CPU     61.16s WALL (     120 calls)

     Called by ortho:
     ortho_iter   :      5.49s CPU      2.96s WALL (     120 calls)
     rsg          :     10.86s CPU      6.27s WALL (     120 calls)
     rhoset       :     12.23s CPU      6.39s WALL (     120 calls)
     sigset       :      2.57s CPU      2.58s WALL (     120 calls)
     tauset       :      2.57s CPU      2.57s WALL (     120 calls)
     ortho        :     58.60s CPU     34.18s WALL (     120 calls)
     updatc       :     23.34s CPU     12.02s WALL (     120 calls)

     Small boxes:
     rhov         :      6.70s CPU      3.40s WALL (     120 calls)
     fftb         :     71.67s CPU     36.21s WALL (  114482 calls)
     set_cc       :      1.86s CPU      0.95s WALL (     120 calls)
     forcecc      :      5.21s CPU      2.63s WALL (     120 calls)

     Low-level routines:
     prefor       :      0.82s CPU      0.45s WALL (     121 calls)
     nlfq         :     30.10s CPU     17.71s WALL (     120 calls)
     nlsm1        :     25.77s CPU     13.52s WALL (     241 calls)
     nlsm2        :     29.83s CPU     17.57s WALL (     120 calls)
     fft          :     34.01s CPU     17.45s WALL (    1802 calls)
     ffts         :      0.78s CPU      0.40s WALL (     240 calls)
     fftw         :    291.18s CPU    149.62s WALL (  111240 calls)
     fft_scatt_xy :      6.46s CPU      3.27s WALL (  113282 calls)
     fft_scatt_yz :    275.43s CPU    141.89s WALL (  113282 calls)
     fft_scatt_tg :      1.41s CPU      0.73s WALL (  111240 calls)
     betagx       :     11.95s CPU      6.02s WALL (       1 calls)
     qradx        :      8.69s CPU      4.37s WALL (       1 calls)
     nlinit       :     23.37s CPU     11.82s WALL (       1 calls)
     init_dim     :      0.43s CPU      0.44s WALL (       1 calls)
     newnlinit    :      0.88s CPU      0.50s WALL (       1 calls)
     from_restart :      2.97s CPU      2.84s WALL (       1 calls)
     strucf       :      0.00s CPU      0.00s WALL (       1 calls)
     calbec       :     25.78s CPU     13.52s WALL (     241 calls)
 
 
     CP           :      3h18m CPU      2h22m WALL

 
   This run was terminated on:  13:22:53  16Feb2021            

=------------------------------------------------------------------------------=
   JOB DONE.
=------------------------------------------------------------------------------=
[1613499773.167134] [nia0222:15790:0]          mpool.c:42   UCX  WARN  object 0x69ad880 was not returned to mpool ucp_requests
[1613499773.222370] [nia0222:15822:0]          mpool.c:42   UCX  WARN  object 0x77b6cc0 was not returned to mpool ucp_requests
[1613499773.229813] [nia0222:15838:0]          mpool.c:42   UCX  WARN  object 0x7084540 was not returned to mpool ucp_requests
[1613499773.237710] [nia0222:15813:0]          mpool.c:42   UCX  WARN  object 0x5b1dfc0 was not returned to mpool ucp_requests
