
     Program CP v.6.6 starts on 16Feb2021 at 13:22:57 

     This program is part of the open-source Quantum ESPRESSO suite
     for quantum simulation of materials; please cite
         "P. Giannozzi et al., J. Phys.:Condens. Matter 21 395502 (2009);
         "P. Giannozzi et al., J. Phys.:Condens. Matter 29 465901 (2017);
          URL http://www.quantum-espresso.org", 
     in publications or presentations arising from this work. More details at
     http://www.quantum-espresso.org/quote

     Parallel version (MPI & OpenMP), running on     320 processor cores
     Number of MPI processes:               160
     Threads/MPI process:                     2

     MPI processes distributed on     4 nodes
     R & G space division:  proc/nbgrp/npool/nimage =     160
     Fft bands division:     nmany     =       1
     Waiting for input...
     Reading input from standard input

   Job Title: MD Simulation


   Atomic Pseudopotentials Parameters
   ----------------------------------

   Reading pseudopotential for specie #  1 from file :
   ./O.pz-n-rrkjus_psl.0.1.UPF
     Message from routine emend_upf/check:
     BEWARE !!! Possible out of bounds while fixing pseudo
     Message from routine emend_upf/check:
     BEWARE !!! Possible out of bounds while fixing pseudo
     Message from routine read_upf:
     Pseudo file O.pz-n-rrkjus_psl.0.1.UPF has been fixed on the fly.
     To avoid this message in the future, permanently fix 
     your pseudo files following these instructions: 
     https://gitlab.com/QEF/q-e/blob/master/upftools/how_to_fix_upf.md
   file type is UPF v.2

   Reading pseudopotential for specie #  2 from file :
   ./Ag.pz-d-rrkjus.UPF
   file type is UPF v.1

   Reading pseudopotential for specie #  3 from file :
   ./Mg.pz-bhs.UPF
   file type is UPF v.1
     file Ag.pz-d-rrkjus.UPF: wavefunction(s)  4D 5S renormalized


   Main Simulation Parameters (from input)
   ---------------------------------------
   Restart Mode       =       0   reset_counters 
   Number of MD Steps =    7000
   Print out every           10 MD Steps
   Reads from unit    =      58
   Writes to unit     =      59
   MD Simulation time step            =       8.00
   Electronic fictitious mass (emass) =     300.00
   emass cut-off                      =       2.50

   Simulation Cell Parameters (from input)
   external pressure       =            0.00 [KBar]
   wmass (calculated)      =       949740.81 [AU]
   initial cell from CELL_PARAMETERS card
      12.63360000    0.00000000    0.00000000
       0.00000000   12.63360000    0.00000000
       0.00000000    0.00000000   16.84480000
   ibrav =    0
   alat  =    23.87404397
   a1    =    23.87404397    0.00000000    0.00000000
   a2    =     0.00000000   23.87404397    0.00000000
   a3    =     0.00000000    0.00000000   31.83205862
 
   b1    =     0.04188649    0.00000000    0.00000000
   b2    =     0.00000000    0.04188649    0.00000000
   b3    =     0.00000000    0.00000000    0.03141487
   omega =   18143.31767057

   Energy Cut-offs
   ---------------
   Ecutwfc =   50.0 Ry,      Ecutrho =  400.0 Ry,      Ecuts =  200.0 Ry
   Gcutwfc =   26.9     ,    Gcutrho =   76.0          Gcuts =   53.7
   NOTA BENE: refg, mmx =   0.050000  9600
   Eigenvalues calculated without the kinetic term contribution
   Orthog. with lagrange multipliers : eps =   0.10E-08,  max = 100
   verlet algorithm for electron dynamics
   with friction frice =  0.0500 , grease =  1.0000
   Electron dynamics : the temperature is not controlled

   Electronic states
   -----------------
   Number of Electrons=  1236, of States =   618
   Occupation numbers :
   2.00 2.00 2.00 2.00 2.00 2.00 2.00 2.00 2.00 2.00
   2.00 2.00 2.00 2.00 2.00 2.00 2.00 2.00 2.00 2.00
   2.00 2.00 2.00 2.00 2.00 2.00 2.00 2.00 2.00 2.00
   2.00 2.00 2.00 2.00 2.00 2.00 2.00 2.00 2.00 2.00
   2.00 2.00 2.00 2.00 2.00 2.00 2.00 2.00 2.00 2.00
   2.00 2.00 2.00 2.00 2.00 2.00 2.00 2.00 2.00 2.00
   2.00 2.00 2.00 2.00 2.00 2.00 2.00 2.00 2.00 2.00
   2.00 2.00 2.00 2.00 2.00 2.00 2.00 2.00 2.00 2.00
   2.00 2.00 2.00 2.00 2.00 2.00 2.00 2.00 2.00 2.00
   2.00 2.00 2.00 2.00 2.00 2.00 2.00 2.00 2.00 2.00
   2.00 2.00 2.00 2.00 2.00 2.00 2.00 2.00 2.00 2.00
   2.00 2.00 2.00 2.00 2.00 2.00 2.00 2.00 2.00 2.00
   2.00 2.00 2.00 2.00 2.00 2.00 2.00 2.00 2.00 2.00
   2.00 2.00 2.00 2.00 2.00 2.00 2.00 2.00 2.00 2.00
   2.00 2.00 2.00 2.00 2.00 2.00 2.00 2.00 2.00 2.00
   2.00 2.00 2.00 2.00 2.00 2.00 2.00 2.00 2.00 2.00
   2.00 2.00 2.00 2.00 2.00 2.00 2.00 2.00 2.00 2.00
   2.00 2.00 2.00 2.00 2.00 2.00 2.00 2.00 2.00 2.00
   2.00 2.00 2.00 2.00 2.00 2.00 2.00 2.00 2.00 2.00
   2.00 2.00 2.00 2.00 2.00 2.00 2.00 2.00 2.00 2.00
   2.00 2.00 2.00 2.00 2.00 2.00 2.00 2.00 2.00 2.00
   2.00 2.00 2.00 2.00 2.00 2.00 2.00 2.00 2.00 2.00
   2.00 2.00 2.00 2.00 2.00 2.00 2.00 2.00 2.00 2.00
   2.00 2.00 2.00 2.00 2.00 2.00 2.00 2.00 2.00 2.00
   2.00 2.00 2.00 2.00 2.00 2.00 2.00 2.00 2.00 2.00
   2.00 2.00 2.00 2.00 2.00 2.00 2.00 2.00 2.00 2.00
   2.00 2.00 2.00 2.00 2.00 2.00 2.00 2.00 2.00 2.00
   2.00 2.00 2.00 2.00 2.00 2.00 2.00 2.00 2.00 2.00
   2.00 2.00 2.00 2.00 2.00 2.00 2.00 2.00 2.00 2.00
   2.00 2.00 2.00 2.00 2.00 2.00 2.00 2.00 2.00 2.00
   2.00 2.00 2.00 2.00 2.00 2.00 2.00 2.00 2.00 2.00
   2.00 2.00 2.00 2.00 2.00 2.00 2.00 2.00 2.00 2.00
   2.00 2.00 2.00 2.00 2.00 2.00 2.00 2.00 2.00 2.00
   2.00 2.00 2.00 2.00 2.00 2.00 2.00 2.00 2.00 2.00
   2.00 2.00 2.00 2.00 2.00 2.00 2.00 2.00 2.00 2.00
   2.00 2.00 2.00 2.00 2.00 2.00 2.00 2.00 2.00 2.00
   2.00 2.00 2.00 2.00 2.00 2.00 2.00 2.00 2.00 2.00
   2.00 2.00 2.00 2.00 2.00 2.00 2.00 2.00 2.00 2.00
   2.00 2.00 2.00 2.00 2.00 2.00 2.00 2.00 2.00 2.00
   2.00 2.00 2.00 2.00 2.00 2.00 2.00 2.00 2.00 2.00
   2.00 2.00 2.00 2.00 2.00 2.00 2.00 2.00 2.00 2.00
   2.00 2.00 2.00 2.00 2.00 2.00 2.00 2.00 2.00 2.00
   2.00 2.00 2.00 2.00 2.00 2.00 2.00 2.00 2.00 2.00
   2.00 2.00 2.00 2.00 2.00 2.00 2.00 2.00 2.00 2.00
   2.00 2.00 2.00 2.00 2.00 2.00 2.00 2.00 2.00 2.00
   2.00 2.00 2.00 2.00 2.00 2.00 2.00 2.00 2.00 2.00
   2.00 2.00 2.00 2.00 2.00 2.00 2.00 2.00 2.00 2.00
   2.00 2.00 2.00 2.00 2.00 2.00 2.00 2.00 2.00 2.00
   2.00 2.00 2.00 2.00 2.00 2.00 2.00 2.00 2.00 2.00
   2.00 2.00 2.00 2.00 2.00 2.00 2.00 2.00 2.00 2.00
   2.00 2.00 2.00 2.00 2.00 2.00 2.00 2.00 2.00 2.00
   2.00 2.00 2.00 2.00 2.00 2.00 2.00 2.00 2.00 2.00
   2.00 2.00 2.00 2.00 2.00 2.00 2.00 2.00 2.00 2.00
   2.00 2.00 2.00 2.00 2.00 2.00 2.00 2.00 2.00 2.00
   2.00 2.00 2.00 2.00 2.00 2.00 2.00 2.00 2.00 2.00
   2.00 2.00 2.00 2.00 2.00 2.00 2.00 2.00 2.00 2.00
   2.00 2.00 2.00 2.00 2.00 2.00 2.00 2.00 2.00 2.00
   2.00 2.00 2.00 2.00 2.00 2.00 2.00 2.00 2.00 2.00
   2.00 2.00 2.00 2.00 2.00 2.00 2.00 2.00 2.00 2.00
   2.00 2.00 2.00 2.00 2.00 2.00 2.00 2.00 2.00 2.00
   2.00 2.00 2.00 2.00 2.00 2.00 2.00 2.00 2.00 2.00
   2.00 2.00 2.00 2.00 2.00 2.00 2.00 2.00


   Exchange and correlations functionals
   -------------------------------------
     Exchange-correlation=  SLA  PZ   NOGX NOGC
                           (   1   1   0   0   0   0   0)


   Ions Simulation Parameters
   --------------------------
   Ions are allowed to move
   Ions dynamics with newton equations
   the temperature is computed for   864 degrees of freedom
   ion dynamics with fricp =  0.0000 and greasp =  1.0000
   Ionic position (from input)
   sorted by specie, and converted to real a.u. coordinates
   Species   1 atoms =  138 mass =     29166.22 (a.u.),        16.00 (amu) rcmax =   0.50 (a.u.)
       17.686732    17.800724    29.675879
       17.686732    21.779731    25.696872
       21.665740    17.800724    25.696872
       21.665739    21.779731    29.675879
       17.686732    17.800724    21.717864
       17.686732    21.779731    17.738857
       21.665740    17.800724    17.738857
       21.665740    21.779731    21.717864
       17.686732    17.800724    13.759849
       17.686732    21.779732     9.780841
       21.665740    17.800724     9.780841
       21.665740    21.779731    13.759849
       17.686733    17.800725     5.801834
       17.686733    21.779732     1.822826
       21.665741    17.800725     1.822826
       21.665740    21.779732     5.801834
       17.686732     9.842708    29.675879
       17.686732    13.821716    25.696872
       21.665740     9.842709    25.696872
       21.665740    13.821716    29.675879
       17.686732     9.842709    21.717864
       17.686732    13.821716    17.738857
       21.665740     9.842709    17.738857
       21.665740    13.821716    21.717864
       17.686733     9.842709    13.759849
       17.686733    13.821717     9.780841
       21.665741     9.842709     9.780841
       21.665740    13.821716    13.759849
       17.686733     9.842709     5.801834
       17.686733    13.821717     1.822826
       21.665741     9.842710     1.822826
       21.665741    13.821717     5.801834
       17.686732     1.884693    29.675879
       17.686732     5.863701    25.696872
       21.665740     1.884693    25.696872
       21.665740     5.863701    29.675879
       17.686733     1.884694    21.717864
       17.686733     5.863701    17.738857
       21.665741     1.884694    17.738857
       21.665740     5.863701    21.717864
       17.686733     1.884694    13.759849
       17.686733     5.863701     9.780841
       21.665741     1.884694     9.780841
       21.665741     5.863701    13.759849
       17.686733     1.884694     5.801834
       17.686733     5.863702     1.822826
       21.665741     1.884695     1.822826
       21.665741     5.863702     5.801834
        9.728716    17.800724    29.675879
        9.728716    21.779731    25.696872
       13.707725    17.800724    25.696872
       13.707724    21.779731    29.675879
        9.728717    17.800724    21.717864
        9.728717    21.779731    17.738857
       13.707725    17.800724    17.738857
       13.707725    21.779731    21.717864
        9.728717    17.800724    13.759849
        9.728717    21.779732     9.780841
       13.707725    17.800724     9.780841
       13.707725    21.779731    13.759849
        9.728718    17.800725     5.801834
        9.728718    21.779732     1.822826
       13.707726    17.800725     1.822826
       13.707725    21.779732     5.801834
        9.728717     9.842708    29.675879
        9.728717    13.821716    25.696872
       13.707725     9.842709    25.696872
       13.707725    13.821716    29.675879
        9.728717     9.842709    21.717864
        9.728717    13.821716    17.738857
       13.707725     9.842709    17.738857
       13.707725    13.821716    21.717864
        9.728718     9.842709    13.759849
        9.728718    13.821717     9.780841
       13.707726     9.842709     9.780841
       13.707725    13.821716    13.759849
        9.728718     9.842709     5.801834
        9.728718    13.821717     1.822826
       13.707726     9.842710     1.822826
       13.707726    13.821717     5.801834
        9.728717     1.884693    29.675879
        9.728717     5.863701    25.696872
       13.707725     1.884693    25.696872
       13.707725     5.863701    29.675879
        9.728718     1.884694    21.717864
        9.728718     5.863701    17.738857
       13.707726     1.884694    17.738857
       13.707725     5.863701    21.717864
        9.728718     1.884694    13.759849
        9.728718     5.863701     9.780841
       13.707726     1.884694     9.780841
       13.707726     5.863701    13.759849
        9.728718     1.884694     5.801834
        9.728718     5.863702     1.822826
       13.707726     1.884695     1.822826
       13.707726     5.863702     5.801834
        1.770701    17.800724    29.675879
        1.770701    21.779731    25.696872
        5.749709    17.800724    25.696872
        5.749709    21.779731    29.675879
        1.770702    17.800724    21.717864
        1.770702    21.779731    17.738857
        5.749710    17.800724    17.738857
        5.749709    21.779731    21.717864
        1.770702    17.800724    13.759849
        1.770702    21.779732     9.780841
        5.749710    17.800724     9.780841
        5.749710    21.779731    13.759849
        1.770702    17.800725     5.801834
        1.770702    21.779732     1.822826
        5.749711    17.800725     1.822826
        5.749710    21.779732     5.801834
        1.770702     9.842708    29.675879
        1.770702    13.821716    25.696872
        5.749710     9.842709    25.696872
        5.749709    13.821716    29.675879
        1.770702     9.842709    21.717864
        5.749710    13.821716    21.717864
        1.770703     9.842709     5.801834
        1.770703    13.821717     1.822826
        5.749711     9.842710     1.822826
        5.749711    13.821717     5.801834
        1.770702     1.884693    29.675879
        1.770702     5.863701    25.696872
        5.749710     1.884693    25.696872
        5.749710     5.863701    29.675879
        1.770702     1.884694    21.717864
        1.770702     5.863701    17.738857
        5.749711     1.884694    17.738857
        5.749710     5.863701    21.717864
        1.770703     1.884694    13.759849
        1.770703     5.863701     9.780841
        5.749711     1.884694     9.780841
        5.749711     5.863701    13.759849
        1.770703     1.884694     5.801834
        1.770703     5.863702     1.822826
        5.749711     1.884695     1.822826
        5.749711     5.863702     5.801834
   Species   2 atoms =   12 mass =    196689.67 (a.u.),       107.90 (amu) rcmax =   0.50 (a.u.)
        1.770702    13.821716    17.738857
        5.749710     9.842709    17.738857
        5.749710    13.821716    17.738857
        1.770702     9.842709    17.738857
        1.770702     9.842709    13.759849
        1.770702    13.821717     9.780841
        5.749711     9.842709     9.780841
        5.749710    13.821717     9.780841
        5.749710     9.842709    13.759849
        1.770702    13.821717    13.759849
        5.749710    13.821716    13.759849
        1.770703     9.842709     9.780841
   Species   3 atoms =  138 mass =     44296.19 (a.u.),        24.30 (amu) rcmax =   0.50 (a.u.)
       21.665739    21.779731    25.696872
       21.665739    17.800724    29.675879
       17.686731    21.779731    29.675879
       17.686732    17.800724    25.696872
       21.665740    21.779732    17.738857
       21.665740    17.800724    21.717864
       17.686732    21.779731    21.717864
       17.686732    17.800724    17.738857
       21.665740    21.779732     9.780841
       21.665740    17.800724    13.759849
       17.686732    21.779732    13.759849
       17.686732    17.800724     9.780841
       21.665740    21.779732     1.822826
       21.665740    17.800725     5.801834
       17.686732    21.779732     5.801834
       17.686733    17.800725     1.822826
       21.665740    13.821716    25.696872
       21.665740     9.842708    29.675879
       17.686732    13.821716    29.675879
       17.686732     9.842709    25.696872
       21.665740    13.821716    17.738857
       21.665740     9.842709    21.717864
       17.686732    13.821716    21.717864
       17.686732     9.842709    17.738857
       21.665740    13.821717     9.780841
       21.665740     9.842709    13.759849
       17.686732    13.821717    13.759849
       17.686733     9.842709     9.780841
       21.665741    13.821717     1.822826
       21.665741     9.842709     5.801834
       17.686733    13.821717     5.801834
       17.686733     9.842710     1.822826
       21.665740     5.863701    25.696872
       21.665740     1.884693    29.675879
       17.686732     5.863701    29.675879
       17.686732     1.884693    25.696872
       21.665740     5.863701    17.738857
       21.665740     1.884694    21.717864
       17.686732     5.863701    21.717864
       17.686733     1.884694    17.738857
       21.665741     5.863702     9.780841
       21.665741     1.884694    13.759849
       17.686733     5.863702    13.759849
       17.686733     1.884694     9.780841
       21.665741     5.863702     1.822826
       21.665741     1.884694     5.801834
       17.686733     5.863702     5.801834
       17.686734     1.884695     1.822826
       13.707724    21.779731    25.696872
       13.707724    17.800724    29.675879
        9.728716    21.779731    29.675879
        9.728717    17.800724    25.696872
       13.707724    21.779732    17.738857
       13.707724    17.800724    21.717864
        9.728717    21.779731    21.717864
        9.728717    17.800724    17.738857
       13.707725    21.779732     9.780841
       13.707725    17.800724    13.759849
        9.728717    21.779732    13.759849
        9.728717    17.800724     9.780841
       13.707725    21.779732     1.822826
       13.707725    17.800725     5.801834
        9.728717    21.779732     5.801834
        9.728718    17.800725     1.822826
       13.707724    13.821716    25.696872
       13.707724     9.842708    29.675879
        9.728717    13.821716    29.675879
        9.728717     9.842709    25.696872
       13.707725    13.821716    17.738857
       13.707725     9.842709    21.717864
        9.728717    13.821716    21.717864
        9.728717     9.842709    17.738857
       13.707725    13.821717     9.780841
       13.707725     9.842709    13.759849
        9.728717    13.821717    13.759849
        9.728718     9.842709     9.780841
       13.707725    13.821717     1.822826
       13.707725     9.842709     5.801834
        9.728718    13.821717     5.801834
        9.728718     9.842710     1.822826
       13.707725     5.863701    25.696872
       13.707725     1.884693    29.675879
        9.728717     5.863701    29.675879
        9.728717     1.884693    25.696872
       13.707725     5.863701    17.738857
       13.707725     1.884694    21.717864
        9.728717     5.863701    21.717864
        9.728718     1.884694    17.738857
       13.707725     5.863702     9.780841
       13.707725     1.884694    13.759849
        9.728718     5.863702    13.759849
        9.728718     1.884694     9.780841
       13.707726     5.863702     1.822826
       13.707726     1.884694     5.801834
        9.728718     5.863702     5.801834
        9.728718     1.884695     1.822826
        5.749709    21.779731    25.696872
        5.749709    17.800724    29.675879
        1.770701    21.779731    29.675879
        1.770702    17.800724    25.696872
        5.749709    21.779732    17.738857
        5.749709    17.800724    21.717864
        1.770702    21.779731    21.717864
        1.770702    17.800724    17.738857
        5.749710    21.779732     9.780841
        5.749710    17.800724    13.759849
        1.770702    21.779732    13.759849
        1.770702    17.800724     9.780841
        5.749710    21.779732     1.822826
        5.749710    17.800725     5.801834
        1.770702    21.779732     5.801834
        1.770703    17.800725     1.822826
        5.749709    13.821716    25.696872
        5.749709     9.842708    29.675879
        1.770702    13.821716    29.675879
        1.770702     9.842709    25.696872
        5.749710     9.842709    21.717864
        1.770702    13.821716    21.717864
        5.749710    13.821717     1.822826
        5.749710     9.842709     5.801834
        1.770703    13.821717     5.801834
        1.770703     9.842710     1.822826
        5.749710     5.863701    25.696872
        5.749710     1.884693    29.675879
        1.770702     5.863701    29.675879
        1.770702     1.884693    25.696872
        5.749710     5.863701    17.738857
        5.749710     1.884694    21.717864
        1.770702     5.863701    21.717864
        1.770703     1.884694    17.738857
        5.749710     5.863702     9.780841
        5.749710     1.884694    13.759849
        1.770703     5.863702    13.759849
        1.770703     1.884694     9.780841
        5.749711     5.863702     1.822826
        5.749711     1.884694     5.801834
        1.770703     5.863702     5.801834
        1.770703     1.884695     1.822826
   Ionic position will be re-read from restart file

   All atoms are allowed to move
   Ionic temperature is not controlled


   Cell Dynamics Parameters (from STDIN)
   -------------------------------------
   internal stress tensor calculated
   Starting cell generated from CELLDM
   Cell parameters will be re-read from restart file
   Constant VOLUME Molecular dynamics
   cell parameters are not allowed to move

    =====================================
    |  BERRY PHASE ELECTRIC FIELD 1        
    =====================================
    | direction    =         3            
    | intensity    =   0.00100 a.u.     
    =====================================

   Verbosity: iverbosity =  0



   Simulation dimensions initialization
   ------------------------------------

   unit vectors of full simulation cell
   in real space:                         in reciprocal space (units 2pi/alat):
   1    23.8740    0.0000    0.0000              1.0000    0.0000    0.0000
   2     0.0000   23.8740    0.0000              0.0000    1.0000    0.0000
   3     0.0000    0.0000   31.8321              0.0000    0.0000    0.7500
 
     Parallelization info
     --------------------
     sticks:   dense  smooth     PW     G-vecs:    dense   smooth      PW
     Min         112      55     13                15304     5404     658
     Max         114      58     16                15338     5430     686
     Sum       18121    9057   2249              2451395   866495  108199
 
 
   Real Mesh
   ---------
   Global Dimensions   Local  Dimensions   Processor Grid
   .X.   .Y.   .Z.     .X.   .Y.   .Z.     .X.   .Y.   .Z.
   160   160   216     160   160     2       1     1   160
   Array leading dimensions ( nr1x, nr2x, nr3x )   =    160   160   216
   Local number of cell to store the grid ( nrxx ) =      51200
   Number of x-y planes for each processors: 
  | 160,   2  | 160,   2  | 160,   2  | 160,   2  | 160,   2
  | 160,   2  | 160,   2  | 160,   2  | 160,   2  | 160,   2
  | 160,   2  | 160,   2  | 160,   2  | 160,   2  | 160,   2
  | 160,   2  | 160,   2  | 160,   2  | 160,   2  | 160,   2
  | 160,   2  | 160,   2  | 160,   2  | 160,   2  | 160,   2
  | 160,   2  | 160,   2  | 160,   2  | 160,   2  | 160,   2
  | 160,   2  | 160,   2  | 160,   2  | 160,   2  | 160,   2
  | 160,   2  | 160,   2  | 160,   2  | 160,   2  | 160,   2
  | 160,   2  | 160,   2  | 160,   2  | 160,   2  | 160,   2
  | 160,   2  | 160,   2  | 160,   2  | 160,   2  | 160,   2
  | 160,   2  | 160,   2  | 160,   2  | 160,   2  | 160,   2
  | 160,   2  | 160,   1  | 160,   1  | 160,   1  | 160,   1
  | 160,   1  | 160,   1  | 160,   1  | 160,   1  | 160,   1
  | 160,   1  | 160,   1  | 160,   1  | 160,   1  | 160,   1
  | 160,   1  | 160,   1  | 160,   1  | 160,   1  | 160,   1
  | 160,   1  | 160,   1  | 160,   1  | 160,   1  | 160,   1
  | 160,   1  | 160,   1  | 160,   1  | 160,   1  | 160,   1
  | 160,   1  | 160,   1  | 160,   1  | 160,   1  | 160,   1
  | 160,   1  | 160,   1  | 160,   1  | 160,   1  | 160,   1
  | 160,   1  | 160,   1  | 160,   1  | 160,   1  | 160,   1
  | 160,   1  | 160,   1  | 160,   1  | 160,   1  | 160,   1
  | 160,   1  | 160,   1  | 160,   1  | 160,   1  | 160,   1
  | 160,   1  | 160,   1  | 160,   1  | 160,   1  | 160,   1
  | 160,   1  | 160,   1  | 160,   1  | 160,   1  | 160,   1
  | 160,   1  | 160,   1  | 160,   1  | 160,   1  | 160,   1
  | 160,   1  | 160,   1  | 160,   1  | 160,   1  | 160,   1
  | 160,   1  | 160,   1  | 160,   1  | 160,   1  | 160,   1
  | 160,   1  | 160,   1  | 160,   1  | 160,   1  | 160,   1
  | 160,   1  | 160,   1  | 160,   1  | 160,   1  | 160,   1
  | 160,   1  | 160,   1  | 160,   1  | 160,   1  | 160,   1
  | 160,   1  | 160,   1  | 160,   1  | 160,   1  | 160,   1
  | 160,   1  | 160,   1  | 160,   1  | 160,   1  | 160,   1
 
   Smooth Real Mesh
   ----------------
   Global Dimensions   Local  Dimensions   Processor Grid
   .X.   .Y.   .Z.     .X.   .Y.   .Z.     .X.   .Y.   .Z.
   108   108   144     108   108     1       1     1   160
   Array leading dimensions ( nr1x, nr2x, nr3x )   =    108   108   144
   Local number of cell to store the grid ( nrxx ) =      11664
   Number of x-y planes for each processors: 
  | 108,   1  | 108,   1  | 108,   1  | 108,   1  | 108,   1
  | 108,   1  | 108,   1  | 108,   1  | 108,   1  | 108,   1
  | 108,   1  | 108,   1  | 108,   1  | 108,   1  | 108,   1
  | 108,   1  | 108,   1  | 108,   1  | 108,   1  | 108,   1
  | 108,   1  | 108,   1  | 108,   1  | 108,   1  | 108,   1
  | 108,   1  | 108,   1  | 108,   1  | 108,   1  | 108,   1
  | 108,   1  | 108,   1  | 108,   1  | 108,   1  | 108,   1
  | 108,   1  | 108,   1  | 108,   1  | 108,   1  | 108,   1
  | 108,   1  | 108,   1  | 108,   1  | 108,   1  | 108,   1
  | 108,   1  | 108,   1  | 108,   1  | 108,   1  | 108,   1
  | 108,   1  | 108,   1  | 108,   1  | 108,   1  | 108,   1
  | 108,   1  | 108,   1  | 108,   1  | 108,   1  | 108,   1
  | 108,   1  | 108,   1  | 108,   1  | 108,   1  | 108,   1
  | 108,   1  | 108,   1  | 108,   1  | 108,   1  | 108,   1
  | 108,   1  | 108,   1  | 108,   1  | 108,   1  | 108,   1
  | 108,   1  | 108,   1  | 108,   1  | 108,   1  | 108,   1
  | 108,   1  | 108,   1  | 108,   1  | 108,   1  | 108,   1
  | 108,   1  | 108,   1  | 108,   1  | 108,   1  | 108,   1
  | 108,   1  | 108,   1  | 108,   1  | 108,   1  | 108,   1
  | 108,   1  | 108,   1  | 108,   1  | 108,   1  | 108,   1
  | 108,   1  | 108,   1  | 108,   1  | 108,   1  | 108,   1
  | 108,   1  | 108,   1  | 108,   1  | 108,   1  | 108,   1
  | 108,   1  | 108,   1  | 108,   1  | 108,   1  | 108,   1
  | 108,   1  | 108,   1  | 108,   1  | 108,   1  | 108,   1
  | 108,   1  | 108,   1  | 108,   1  | 108,   1  | 108,   1
  | 108,   1  | 108,   1  | 108,   1  | 108,   1  | 108,   1
  | 108,   1  | 108,   1  | 108,   1  | 108,   1  | 108,   1
  | 108,   1  | 108,   1  | 108,   1  | 108,   1  | 108,   1
  | 108,   1  | 108,   1  | 108,   1  | 108,   1  | 108,   0
  | 108,   0  | 108,   0  | 108,   0  | 108,   0  | 108,   0
  | 108,   0  | 108,   0  | 108,   0  | 108,   0  | 108,   0
  | 108,   0  | 108,   0  | 108,   0  | 108,   0  | 108,   0
 
   Small Box Real Mesh
   -------------------
   Global Dimensions   Local  Dimensions   Processor Grid
   .X.   .Y.   .Z.     .X.   .Y.   .Z.     .X.   .Y.   .Z.
    30    30    30      30    30    30       1     1     1
   Array leading dimensions ( nr1x, nr2x, nr3x )   =     30    30    30
   Local number of cell to store the grid ( nrxx ) =      27000
 
   unit vectors of box grid cell
   in real space:                         in reciprocal space:
       4.4764    0.0000    0.0000              1.0000    0.0000    0.0000
       0.0000    4.4764    0.0000              0.0000    1.0000    0.0000
       0.0000    0.0000    4.4211              0.0000    0.0000    1.0125
 
   Reciprocal Space Mesh
   ---------------------
   Large Mesh
     Global(ngm_g)    MinLocal       MaxLocal      Average
        1225698           7652           7669        7660.61
   Smooth Mesh
     Global(ngms_g)   MinLocal       MaxLocal      Average
         433248           2702           2715        2707.80
   Wave function Mesh
     Global(ngw_g)    MinLocal       MaxLocal      Average
          54100            329            343         338.12

   Small box Mesh
   ngb =         5979 not distributed to processors


   System geometry initialization
   ------------------------------
   cell parameters read from restart file
   ibrav =    0       cell parameters 


   cell at current step : h(t)
      24.54239       0.00076       0.00000
       0.00076      24.54229       0.00000
       0.00000       0.00000      32.45460

   cell at previous step : h(t-dt)
      24.54239       0.00076       0.00000
       0.00076      24.54229       0.00000
       0.00000       0.00000      32.45460
 
 
   unit vectors of box grid cell
   in real space:                         in reciprocal space:
       4.6017    0.0001    0.0000              1.0000   -0.0000   -0.0000
       0.0001    4.6017    0.0000             -0.0000    1.0000   -0.0000
       0.0000    0.0000    4.5076             -0.0000   -0.0000    1.0209

   Matrix Multiplication Performances
   ortho mmul, time for parallel driver      =   0.00072 with  144 procs

   Constraints matrixes will be distributed block like on
   ortho sub-group =   12*  12 procs



   Pseudopotentials initialization
   -------------------------------
is, nh(is), ngb, kkbeta, lmaxq =     1    8 5979  761    5
 
                        qqq 
  -0.1545  -0.1232   0.0000   0.0000
  -0.1232  -0.0988   0.0000   0.0000
   0.0000   0.0000   0.1445   0.1161
   0.0000   0.0000   0.1161   0.0931
 
is, nh(is), ngb, kkbeta, lmaxq =     2   13 5979  987    5
 
                        qqq 
  -0.0000   0.0000   0.0000
   0.0000   0.5280  -0.5060
   0.0000  -0.5060   0.4853
 


   Common initialization

   Specie:     1
   1  indv=  1   ang. mom=  0
   2  indv=  2   ang. mom=  0
   3  indv=  3   ang. mom=  1
   4  indv=  3   ang. mom=  1
   5  indv=  3   ang. mom=  1
   6  indv=  4   ang. mom=  1
   7  indv=  4   ang. mom=  1
   8  indv=  4   ang. mom=  1
 
                        dion 
   0.3894   0.2818   0.0000   0.0000
   0.2818   0.2028   0.0000   0.0000
   0.0000   0.0000   0.4711   0.4028
   0.0000   0.0000   0.4028   0.3438

   Specie:     2
   1  indv=  1   ang. mom=  1
   2  indv=  1   ang. mom=  1
   3  indv=  1   ang. mom=  1
   4  indv=  2   ang. mom=  2
   5  indv=  2   ang. mom=  2
   6  indv=  2   ang. mom=  2
   7  indv=  2   ang. mom=  2
   8  indv=  2   ang. mom=  2
   9  indv=  3   ang. mom=  2
  10  indv=  3   ang. mom=  2
  11  indv=  3   ang. mom=  2
  12  indv=  3   ang. mom=  2
  13  indv=  3   ang. mom=  2
 
                        dion 
   0.0116   0.0000   0.0000
   0.0000  -1.4888   1.4112
   0.0000   1.4112  -1.3393

   Specie:     3
   1  indv=  1   ang. mom=  0
 
                        dion 
  10.8855

   Cell parameters from input file are used in electron mass preconditioning
   init_tpiba2=    0.06926403
 
   Short Legend and Physical Units in the Output
   ---------------------------------------------
   NFI    [int]          - step index
   EKINC  [HARTREE A.U.] - kinetic energy of the fictitious electronic dynamics
   TEMPH  [K]            - Temperature of the fictitious cell dynamics
   TEMP   [K]            - Ionic temperature
   ETOT   [HARTREE A.U.] - Scf total energy (Kohn-Sham hamiltonian)
   ENTHAL [HARTREE A.U.] - Enthalpy ( ETOT + P * V )
   ECONS  [HARTREE A.U.] - Enthalpy + kinetic energy of ions and cell
   ECONT  [HARTREE A.U.] - Constant of motion for the CP lagrangian
 
 Electronic velocities set to zero

   formf: eself=  5562.85116
   formf:     vps(g=0)=  -0.0000729     rhops(g=0)=  -0.0003057
   formf:     vps(g=0)=  -0.0000727     rhops(g=0)=  -0.0003050
   formf:     vps(g=0)=  -0.0000727     rhops(g=0)=  -0.0003050
   formf:     vps(g=0)=  -0.0000720     rhops(g=0)=  -0.0003028
   formf:     vps(g=0)=  -0.0000720     rhops(g=0)=  -0.0003028
   formf: sum_g vps(g)=   1.1729686 sum_g rhops(g)=  -4.3101249
   formf:     vps(g=0)=   0.0036178     rhops(g=0)=  -0.0005604
   formf:     vps(g=0)=   0.0035924     rhops(g=0)=  -0.0005591
   formf:     vps(g=0)=   0.0035924     rhops(g=0)=  -0.0005591
   formf:     vps(g=0)=   0.0035171     rhops(g=0)=  -0.0005552
   formf:     vps(g=0)=   0.0035171     rhops(g=0)=  -0.0005552
   formf: sum_g vps(g)=   9.1559870 sum_g rhops(g)=  -7.9018956
   formf:     vps(g=0)=   0.0008190     rhops(g=0)=  -0.0001019
   formf:     vps(g=0)=   0.0008121     rhops(g=0)=  -0.0001017
   formf:     vps(g=0)=   0.0008121     rhops(g=0)=  -0.0001017
   formf:     vps(g=0)=   0.0007914     rhops(g=0)=  -0.0001009
   formf:     vps(g=0)=   0.0007914     rhops(g=0)=  -0.0001009
   formf: sum_g vps(g)=   1.8172172 sum_g rhops(g)=  -1.4367083
   Delta V(G=0):   0.049659Ry,    1.351291eV
Initialize Berry phase electric field
 Additional found:           0
 Additional found:           0
 Additional found:           0
 Additional found:           0
 #not found, gtable:    2249.00000000000     
 #not found, gtabin:    2249.00000000000     
 WARNING setting to ZERO ions, electrons and cell velocities without 
 setting to ZERO all velocities could generate meaningles trajectories 
 
  nfi     ekinc              temph  tempp     etot                 enthal               econs                econt              vnhh    xnhh0   vnhp    xnhp0
      1    0.000000001010736    0.0    0.00   -2898.556237738520   -2898.551057920864   -2898.551056990547   -2898.551056989536   0.0000   0.0000   0.0000   0.0000
Elct. dipole 1   -3.856765  Ionic dipole 1    9.036582
      2    0.000000013310469    0.0    0.00   -2898.556240217586   -2898.551062581018   -2898.551059197050   -2898.551059183740   0.0000   0.0000   0.0000   0.0000
Elct. dipole 1   -3.855929  Ionic dipole 1    9.033565
      3    0.000000112812405    0.0    0.01   -2898.556244902556   -2898.551070458266   -2898.551062447983   -2898.551062335171   0.0000   0.0000   0.0000   0.0000
Elct. dipole 1   -3.853190  Ionic dipole 1    9.027635
      4    0.000000478595792    0.0    0.01   -2898.556251753846   -2898.551079680876   -2898.551065165361   -2898.551064686765   0.0000   0.0000   0.0000   0.0000
Elct. dipole 1   -3.846859  Ionic dipole 1    9.018932
      5    0.000001269574159    0.0    0.02   -2898.556260971097   -2898.551088618658   -2898.551065900469   -2898.551064630895   0.0000   0.0000   0.0000   0.0000
Elct. dipole 1   -3.835245  Ionic dipole 1    9.007597
      6    0.000002439105398    0.0    0.02   -2898.556272384070   -2898.551095893679   -2898.551063250453   -2898.551060811348   0.0000   0.0000   0.0000   0.0000
Elct. dipole 1   -3.817223  Ionic dipole 1    8.993714
      7    0.000003725177930    0.0    0.03   -2898.556286114366   -2898.551101353105   -2898.551056882157   -2898.551053156979   0.0000   0.0000   0.0000   0.0000
Elct. dipole 1   -3.792536  Ionic dipole 1    8.977298
      8    0.000004846645242    0.0    0.04   -2898.556302216297   -2898.551105581953   -2898.551047180919   -2898.551042334274   0.0000   0.0000   0.0000   0.0000
Elct. dipole 1   -3.761674  Ionic dipole 1    8.958308
      9    0.000005706562726    0.0    0.05   -2898.556320264659   -2898.551109005671   -2898.551034495269   -2898.551028788706   0.0000   0.0000   0.0000   0.0000
Elct. dipole 1   -3.725428  Ionic dipole 1    8.936687
     10    0.000006432014047    0.0    0.07   -2898.556340473623   -2898.551112444255   -2898.551019762790   -2898.551013330776   0.0000   0.0000   0.0000   0.0000
Elct. dipole 1   -3.684366  Ionic dipole 1    8.912395
     11    0.000007269154640    0.0    0.08   -2898.556362728421   -2898.551115820408   -2898.551003183401   -2898.550995914246   0.0000   0.0000   0.0000   0.0000
Elct. dipole 1   -3.638528  Ionic dipole 1    8.885436
     12    0.000008450541128    0.0    0.10   -2898.556386798584   -2898.551118457065   -2898.550984397301   -2898.550975946760   0.0000   0.0000   0.0000   0.0000
Elct. dipole 1   -3.587516  Ionic dipole 1    8.855857
     13    0.000010098146504    0.0    0.11   -2898.556413022663   -2898.551120162902   -2898.550963434186   -2898.550953336040   0.0000   0.0000   0.0000   0.0000
Elct. dipole 1   -3.530872  Ionic dipole 1    8.823732
     14    0.000012169599427    0.0    0.13   -2898.556441194529   -2898.551120554136   -2898.550939955776   -2898.550927786177   0.0000   0.0000   0.0000   0.0000
Elct. dipole 1   -3.468493  Ionic dipole 1    8.789134
     15    0.000014471128875    0.0    0.15   -2898.556471440226   -2898.551120120805   -2898.550914337115   -2898.550899865986   0.0000   0.0000   0.0000   0.0000
Elct. dipole 1   -3.400795  Ionic dipole 1    8.752115
     16    0.000016753878051    0.0    0.17   -2898.556503467669   -2898.551119318564   -2898.550886852161   -2898.550870098283   0.0000   0.0000   0.0000   0.0000
Elct. dipole 1   -3.328549  Ionic dipole 1    8.712699
     17    0.000018843519519    0.0    0.19   -2898.556537617015   -2898.551119238444   -2898.550858462896   -2898.550839619377   0.0000   0.0000   0.0000   0.0000
Elct. dipole 1   -3.252508  Ionic dipole 1    8.670887
     18    0.000020719564978    0.0    0.21   -2898.556573451999   -2898.551119839717   -2898.550829136845   -2898.550808417280   0.0000   0.0000   0.0000   0.0000
Elct. dipole 1   -3.173062  Ionic dipole 1    8.626675
     19    0.000022505456436    0.0    0.24   -2898.556610810623   -2898.551120863824   -2898.550798772450   -2898.550776266993   0.0000   0.0000   0.0000   0.0000
Elct. dipole 1   -3.090117  Ionic dipole 1    8.580064
     20    0.000024391595223    0.0    0.26   -2898.556650174834   -2898.551122328885   -2898.550767631604   -2898.550743240009   0.0000   0.0000   0.0000   0.0000
Elct. dipole 1   -3.003230  Ionic dipole 1    8.531076
     21    0.000026537404035    0.0    0.28   -2898.556690801443   -2898.551122939900   -2898.550734650758   -2898.550708113354   0.0000   0.0000   0.0000   0.0000
Elct. dipole 1   -2.911886  Ionic dipole 1    8.479748
     22    0.000028996334703    0.0    0.31   -2898.556733435541   -2898.551123069377   -2898.550700338255   -2898.550671341921   0.0000   0.0000   0.0000   0.0000
Elct. dipole 1   -2.815759  Ionic dipole 1    8.426125
     23    0.000031697604136    0.0    0.33   -2898.556777527928   -2898.551122108568   -2898.550664099200   -2898.550632401596   0.0000   0.0000   0.0000   0.0000
Elct. dipole 1   -2.714835  Ionic dipole 1    8.370255
     24    0.000034494217474    0.0    0.36   -2898.556823392302   -2898.551120599290   -2898.550626405421   -2898.550591911203   0.0000   0.0000   0.0000   0.0000
Elct. dipole 1   -2.609380  Ionic dipole 1    8.312173
     25    0.000037247271778    0.0    0.39   -2898.556870458906   -2898.551118349825   -2898.550586987090   -2898.550549739818   0.0000   0.0000   0.0000   0.0000
Elct. dipole 1   -2.499797  Ionic dipole 1    8.251906
     26    0.000039893269449    0.0    0.42   -2898.556918694466   -2898.551115683869   -2898.550546151142   -2898.550506257873   0.0000   0.0000   0.0000   0.0000
Elct. dipole 1   -2.386463  Ionic dipole 1    8.189474
     27    0.000042460127210    0.0    0.44   -2898.556968788337   -2898.551113491181   -2898.550504859996   -2898.550462399869   0.0000   0.0000   0.0000   0.0000
Elct. dipole 1   -2.269597  Ionic dipole 1    8.124894
     28    0.000045035241012    0.0    0.47   -2898.557020104853   -2898.551111123815   -2898.550462605747   -2898.550417570506   0.0000   0.0000   0.0000   0.0000
Elct. dipole 1   -2.149209  Ionic dipole 1    8.058190
     29    0.000047710771596    0.0    0.50   -2898.557072766221   -2898.551108515415   -2898.550419476055   -2898.550371765284   0.0000   0.0000   0.0000   0.0000
Elct. dipole 1   -2.025142  Ionic dipole 1    7.989392
     30    0.000050534270086    0.0    0.53   -2898.557126745381   -2898.551105384113   -2898.550375304818   -2898.550324770548   0.0000   0.0000   0.0000   0.0000
Elct. dipole 1   -1.897175  Ionic dipole 1    7.918536
     31    0.000053488021665    0.0    0.56   -2898.557181572759   -2898.551101074014   -2898.550329489453   -2898.550276001431   0.0000   0.0000   0.0000   0.0000
Elct. dipole 1   -1.765159  Ionic dipole 1    7.845658
     32    0.000056505989137    0.0    0.59   -2898.557237525870   -2898.551095840842   -2898.550282288766   -2898.550225782777   0.0000   0.0000   0.0000   0.0000
Elct. dipole 1   -1.629108  Ionic dipole 1    7.770793
     33    0.000059515205057    0.0    0.63   -2898.557294413100   -2898.551089644609   -2898.550233652123   -2898.550174136918   0.0000   0.0000   0.0000   0.0000
Elct. dipole 1   -1.489203  Ionic dipole 1    7.693972
     34    0.000062474628767    0.0    0.66   -2898.557352583375   -2898.551083077989   -2898.550184185184   -2898.550121710555   0.0000   0.0000   0.0000   0.0000
Elct. dipole 1   -1.345716  Ionic dipole 1    7.615222
     35    0.000065389922334    0.0    0.69   -2898.557411732784   -2898.551076048992   -2898.550133850715   -2898.550068460792   0.0000   0.0000   0.0000   0.0000
Elct. dipole 1   -1.198885  Ionic dipole 1    7.534569
     36    0.000068299494181    0.0    0.72   -2898.557471856156   -2898.551068636447   -2898.550082816085   -2898.550014516591   0.0000   0.0000   0.0000   0.0000
Elct. dipole 1   -1.048822  Ionic dipole 1    7.452041
     37    0.000071244378843    0.0    0.75   -2898.557532627417   -2898.551060454703   -2898.550030791976   -2898.549959547598   0.0000   0.0000   0.0000   0.0000
Elct. dipole 1   -0.895498  Ionic dipole 1    7.367671
     38    0.000074241858740    0.0    0.78   -2898.557594075824   -2898.551051396802   -2898.549977748426   -2898.549903506567   0.0000   0.0000   0.0000   0.0000
Elct. dipole 1   -0.738812  Ionic dipole 1    7.281491
     39    0.000077276931003    0.0    0.82   -2898.557656801830   -2898.551041953749   -2898.549924221553   -2898.549846944622   0.0000   0.0000   0.0000   0.0000
Elct. dipole 1   -0.578688  Ionic dipole 1    7.193536
     40    0.000080313585812    0.0    0.85   -2898.557719754042   -2898.551031067513   -2898.549869174376   -2898.549788860790   0.0000   0.0000   0.0000   0.0000
Elct. dipole 1   -0.415152  Ionic dipole 1    7.103838
     41    0.000083317345477    0.0    0.88   -2898.557783365223   -2898.551019275486   -2898.549813162843   -2898.549729845497   0.0000   0.0000   0.0000   0.0000
Elct. dipole 1   -0.248339  Ionic dipole 1    7.012429
     42    0.000086275596329    0.0    0.91   -2898.557847470713   -2898.551006573761   -2898.549756220380   -2898.549669944784   0.0000   0.0000   0.0000   0.0000
Elct. dipole 1   -0.078439  Ionic dipole 1    6.919336
     43    0.000089203779421    0.0    0.95   -2898.557912364796   -2898.550993394765   -2898.549698843394   -2898.549609639615   0.0000   0.0000   0.0000   0.0000
Elct. dipole 1    0.094378  Ionic dipole 1    6.824592
     44    0.000092133986557    0.0    0.98   -2898.557977344944   -2898.550979095907   -2898.549640470044   -2898.549548336058   0.0000   0.0000   0.0000   0.0000
Elct. dipole 1    0.270023  Ionic dipole 1    6.728226
     45    0.000095092743544    0.0    1.01   -2898.558043120087   -2898.550964361103   -2898.549581860557   -2898.549486767814   0.0000   0.0000   0.0000   0.0000
Elct. dipole 1    0.448486  Ionic dipole 1    6.630273
     46    0.000098081700916    0.0    1.04   -2898.558109130266   -2898.550948556916   -2898.549522433961   -2898.549424352260   0.0000   0.0000   0.0000   0.0000
Elct. dipole 1    0.629806  Ionic dipole 1    6.530767
     47    0.000101073144373    0.0    1.07   -2898.558175396918   -2898.550931635461   -2898.549462165020   -2898.549361091876   0.0000   0.0000   0.0000   0.0000
Elct. dipole 1    0.814017  Ionic dipole 1    6.429744
     48    0.000104023822259    0.0    1.11   -2898.558242011330   -2898.550913663316   -2898.549401123992   -2898.549297100170   0.0000   0.0000   0.0000   0.0000
Elct. dipole 1    1.001112  Ionic dipole 1    6.327236
     49    0.000106897591450    0.0    1.14   -2898.558308544735   -2898.550894243201   -2898.549338920035   -2898.549232022443   0.0000   0.0000   0.0000   0.0000
Elct. dipole 1    1.191028  Ionic dipole 1    6.223273
     50    0.000109683270715    0.0    1.17   -2898.558375376603   -2898.550873828188   -2898.549276034390   -2898.549166351119   0.0000   0.0000   0.0000   0.0000
Elct. dipole 1    1.383662  Ionic dipole 1    6.117887
     51    0.000112399441704    0.0    1.20   -2898.558442213892   -2898.550852215208   -2898.549212319801   -2898.549099920359   0.0000   0.0000   0.0000   0.0000
Elct. dipole 1    1.578893  Ionic dipole 1    6.011106
     52    0.000115083058082    0.0    1.23   -2898.558509331433   -2898.550829758008   -2898.549148205193   -2898.549033122135   0.0000   0.0000   0.0000   0.0000
Elct. dipole 1    1.776612  Ionic dipole 1    5.902962
     53    0.000117768959477    0.0    1.26   -2898.558576222880   -2898.550806001325   -2898.549083310560   -2898.548965541601   0.0000   0.0000   0.0000   0.0000
Elct. dipole 1    1.976733  Ionic dipole 1    5.793488
     54    0.000120471514806    0.0    1.29   -2898.558643399676   -2898.550781476366   -2898.549018223027   -2898.548897751512   0.0000   0.0000   0.0000   0.0000
Elct. dipole 1    2.179203  Ionic dipole 1    5.682720
     55    0.000123177564133    0.0    1.32   -2898.558710105948   -2898.550755425220   -2898.548952212385   -2898.548829034821   0.0000   0.0000   0.0000   0.0000
Elct. dipole 1    2.383989  Ionic dipole 1    5.570692
     56    0.000125853070333    0.0    1.35   -2898.558777337802   -2898.550728836893   -2898.548886272095   -2898.548760419025   0.0000   0.0000   0.0000   0.0000
Elct. dipole 1    2.591063  Ionic dipole 1    5.457438
     57    0.000128458765868    0.0    1.38   -2898.558844338656   -2898.550700959234   -2898.548819645366   -2898.548691186600   0.0000   0.0000   0.0000   0.0000
Elct. dipole 1    2.800388  Ionic dipole 1    5.342991
     58    0.000130967421734    0.0    1.40   -2898.558911308779   -2898.550672020893   -2898.548752563126   -2898.548621595704   0.0000   0.0000   0.0000   0.0000
Elct. dipole 1    3.011906  Ionic dipole 1    5.227382
     59    0.000133373883188    0.0    1.43   -2898.558978042511   -2898.550641866362   -2898.548684891275   -2898.548551517392   0.0000   0.0000   0.0000   0.0000
Elct. dipole 1    3.225535  Ionic dipole 1    5.110641
     60    0.000135694698376    0.0    1.46   -2898.559044194963   -2898.550610210291   -2898.548616386574   -2898.548480691876   0.0000   0.0000   0.0000   0.0000
Elct. dipole 1    3.441186  Ionic dipole 1    4.992799
     61    0.000137958659345    0.0    1.48   -2898.559109999693   -2898.550577338406   -2898.548547389473   -2898.548409430814   0.0000   0.0000   0.0000   0.0000
Elct. dipole 1    3.658774  Ionic dipole 1    4.873888
     62    0.000140193438012    0.0    1.51   -2898.559175536090   -2898.550543363429   -2898.548478067748   -2898.548337874310   0.0000   0.0000   0.0000   0.0000
Elct. dipole 1    3.878233  Ionic dipole 1    4.753939
     63    0.000142413814671    0.0    1.53   -2898.559240663681   -2898.550508158750   -2898.548408338547   -2898.548265924733   0.0000   0.0000   0.0000   0.0000
Elct. dipole 1    4.099517  Ionic dipole 1    4.632988
     64    0.000144616650509    0.0    1.56   -2898.559305604402   -2898.550471950487   -2898.548338453356   -2898.548193836705   0.0000   0.0000   0.0000   0.0000
Elct. dipole 1    4.322586  Ionic dipole 1    4.511068
     65    0.000146783325007    0.0    1.58   -2898.559370075929   -2898.550434464140   -2898.548268144974   -2898.548121361649   0.0000   0.0000   0.0000   0.0000
Elct. dipole 1    4.547400  Ionic dipole 1    4.388211
     66    0.000148887265292    0.0    1.61   -2898.559433978886   -2898.550395622189   -2898.548197331764   -2898.548048444498   0.0000   0.0000   0.0000   0.0000
Elct. dipole 1    4.773904  Ionic dipole 1    4.264452
     67    0.000150904396021    0.0    1.63   -2898.559497172292   -2898.550355319566   -2898.548125903330   -2898.547974998934   0.0000   0.0000   0.0000   0.0000
Elct. dipole 1    5.002031  Ionic dipole 1    4.139822
     68    0.000152821505083    0.0    1.65   -2898.559559478451   -2898.550313421517   -2898.548053727839   -2898.547900906334   0.0000   0.0000   0.0000   0.0000
Elct. dipole 1    5.231706  Ionic dipole 1    4.014351
     69    0.000154640643334    0.0    1.67   -2898.559621478657   -2898.550270550869   -2898.547981443838   -2898.547826803194   0.0000   0.0000   0.0000   0.0000
Elct. dipole 1    5.462858  Ionic dipole 1    3.888070
     70    0.000156376405773    0.0    1.69   -2898.559683008799   -2898.550226577676   -2898.547908949528   -2898.547752573122   0.0000   0.0000   0.0000   0.0000
Elct. dipole 1    5.695421  Ionic dipole 1    3.761010
     71    0.000158048824013    0.0    1.71   -2898.559743656768   -2898.550181116995   -2898.547835893590   -2898.547677844766   0.0000   0.0000   0.0000   0.0000
Elct. dipole 1    5.929337  Ionic dipole 1    3.633202
     72    0.000159674838048    0.0    1.73   -2898.559803328200   -2898.550134096914   -2898.547762235243   -2898.547602560405   0.0000   0.0000   0.0000   0.0000
Elct. dipole 1    6.164553  Ionic dipole 1    3.504679
     73    0.000161261305888    0.0    1.75   -2898.559862976629   -2898.550086493157   -2898.547688971595   -2898.547527710289   0.0000   0.0000   0.0000   0.0000
Elct. dipole 1    6.401012  Ionic dipole 1    3.375471
     74    0.000162803798258    0.0    1.77   -2898.559921583159   -2898.550037311034   -2898.547615116396   -2898.547452312598   0.0000   0.0000   0.0000   0.0000
Elct. dipole 1    6.638660  Ionic dipole 1    3.245612
     75    0.000164289264349    0.0    1.79   -2898.559979435318   -2898.549986864791   -2898.547540982066   -2898.547376692802   0.0000   0.0000   0.0000   0.0000
Elct. dipole 1    6.877437  Ionic dipole 1    3.115133
     76    0.000165701956768    0.0    1.80   -2898.560037055551   -2898.549935705897   -2898.547467112835   -2898.547301410879   0.0000   0.0000   0.0000   0.0000
Elct. dipole 1    7.117284  Ionic dipole 1    2.984066
     77    0.000167029833572    0.0    1.82   -2898.560093198474   -2898.549882619100   -2898.547392287522   -2898.547225257689   0.0000   0.0000   0.0000   0.0000
Elct. dipole 1    7.358139  Ionic dipole 1    2.852440
     78    0.000168263794005    0.0    1.84   -2898.560148734184   -2898.549828504160   -2898.547317406576   -2898.547149142782   0.0000   0.0000   0.0000   0.0000
Elct. dipole 1    7.599943  Ionic dipole 1    2.720287
     79    0.000169408979889    0.0    1.85   -2898.560203575454   -2898.549773354956   -2898.547242473730   -2898.547073064750   0.0000   0.0000   0.0000   0.0000
Elct. dipole 1    7.842585  Ionic dipole 1    2.587636
     80    0.000170479858537    0.0    1.86   -2898.560257866268   -2898.549717323945   -2898.547167651905   -2898.546997172046   0.0000   0.0000   0.0000   0.0000
Elct. dipole 1    8.086026  Ionic dipole 1    2.454517
     81    0.000171486185661    0.0    1.88   -2898.560310973744   -2898.549659777066   -2898.547092316656   -2898.546920830471   0.0000   0.0000   0.0000   0.0000
Elct. dipole 1    8.330237  Ionic dipole 1    2.320960
     82    0.000172436081443    0.0    1.89   -2898.560363288510   -2898.549601101533   -2898.547016864743   -2898.546844428662   0.0000   0.0000   0.0000   0.0000
Elct. dipole 1    8.575191  Ionic dipole 1    2.186996
     83    0.000173332005524    0.0    1.90   -2898.560414501022   -2898.549540992444   -2898.546940994802   -2898.546767662797   0.0000   0.0000   0.0000   0.0000
Elct. dipole 1    8.820854  Ionic dipole 1    2.052655
     84    0.000174167999096    0.0    1.91   -2898.560464532316   -2898.549479391972   -2898.546864647685   -2898.546690479686   0.0000   0.0000   0.0000   0.0000
Elct. dipole 1    9.067174  Ionic dipole 1    1.917966
     85    0.000174939215690    0.0    1.92   -2898.560514198391   -2898.549417181404   -2898.546788700268   -2898.546613761052   0.0000   0.0000   0.0000   0.0000
Elct. dipole 1    9.314056  Ionic dipole 1    1.782961
     86    0.000175642819593    0.0    1.93   -2898.560562701348   -2898.549353602222   -2898.546712384270   -2898.546536741451   0.0000   0.0000   0.0000   0.0000
Elct. dipole 1    9.561431  Ionic dipole 1    1.647668
     87    0.000176272586401    0.0    1.94   -2898.560610220023   -2898.549288866430   -2898.546635899194   -2898.546459626608   0.0000   0.0000   0.0000   0.0000
Elct. dipole 1    9.809238  Ionic dipole 1    1.512116
     88    0.000176824019156    0.0    1.95   -2898.560656611895   -2898.549222852313   -2898.546559113141   -2898.546382289122   0.0000   0.0000   0.0000   0.0000
Elct. dipole 1   10.057426  Ionic dipole 1    1.376334
     89    0.000177296292452    0.0    1.95   -2898.560702408648   -2898.549156102994   -2898.546482561957   -2898.546305265664   0.0000   0.0000   0.0000   0.0000
Elct. dipole 1   10.305956  Ionic dipole 1    1.240350
     90    0.000177693716620    0.0    1.96   -2898.560747265848   -2898.549088285551   -2898.546405909887   -2898.546228216170   0.0000   0.0000   0.0000   0.0000
Elct. dipole 1   10.554788  Ionic dipole 1    1.104192
     91    0.000178024467104    0.0    1.97   -2898.560791209504   -2898.549019446503   -2898.546329203438   -2898.546151178971   0.0000   0.0000   0.0000   0.0000
Elct. dipole 1   10.803875  Ionic dipole 1    0.967888
     92    0.000178296559706    0.0    1.97   -2898.560833825132   -2898.548949202841   -2898.546252059150   -2898.546073762591   0.0000   0.0000   0.0000   0.0000
Elct. dipole 1   11.053156  Ionic dipole 1    0.831466
     93    0.000178513984528    0.0    1.98   -2898.560875793934   -2898.548878272913   -2898.546175190979   -2898.545996676994   0.0000   0.0000   0.0000   0.0000
Elct. dipole 1   11.302566  Ionic dipole 1    0.694955
     94    0.000178675760680    0.0    1.98   -2898.560916631192   -2898.548806206876   -2898.546098139122   -2898.545919463362   0.0000   0.0000   0.0000   0.0000
Elct. dipole 1   11.552043  Ionic dipole 1    0.558381
     95    0.000178777302782    0.0    1.98   -2898.560956874791   -2898.548733570382   -2898.546021454486   -2898.545842677183   0.0000   0.0000   0.0000   0.0000
Elct. dipole 1   11.801532  Ionic dipole 1    0.421773
     96    0.000178813055462    0.0    1.98   -2898.560995929658   -2898.548659790059   -2898.545944546538   -2898.545765733483   0.0000   0.0000   0.0000   0.0000
Elct. dipole 1   12.050983  Ionic dipole 1    0.285157
     97    0.000178779198252    0.0    1.99   -2898.561033740010   -2898.548584829891   -2898.545867362740   -2898.545688583542   0.0000   0.0000   0.0000   0.0000
Elct. dipole 1   12.300350  Ionic dipole 1    0.148560
     98    0.000178675379717    0.0    1.99   -2898.561070873285   -2898.548509278467   -2898.545790477913   -2898.545611802534   0.0000   0.0000   0.0000   0.0000
Elct. dipole 1   12.549587  Ionic dipole 1    0.012008
     99    0.000178505183496    0.0    1.99   -2898.561106977699   -2898.548432806810   -2898.545713552676   -2898.545535047493   0.0000   0.0000   0.0000   0.0000
Elct. dipole 1   12.798644  Ionic dipole 1   -0.124473

 * Physical Quantities at step:   100

   from rhoofr: total integrated electronic density
   in g-space =   1236.000000   in r-space =  1236.000000
     Total Electronic Pressure (GPa)       41.02320    100
     Pressure of Nuclei (GPa)             0.00273    100
     Pressure Total (GPa)             0.02762    100


                total energy =    -2898.56114205458 Hartree a.u.
              kinetic energy =     1316.42109 Hartree a.u.
        electrostatic energy =    -3924.25215 Hartree a.u.
                         esr =        0.00000 Hartree a.u.
                       eself =     5562.85116 Hartree a.u.
      pseudopotential energy =      261.76249 Hartree a.u.
  n-l pseudopotential energy =      193.28435 Hartree a.u.
 exchange-correlation energy =     -745.76414 Hartree a.u.
           average potential =        0.00000 Hartree a.u.



   Eigenvalues (eV), kp =   1 , spin =  1

  -12.75  -12.59  -12.51  -12.49  -12.39  -12.39  -12.38  -12.30  -12.27  -12.26
  -12.26  -12.25  -12.20  -12.20  -12.18  -12.14  -12.13  -12.09  -12.08  -12.07
  -12.04  -12.03  -12.01  -11.98  -11.98  -11.97  -11.97  -11.94  -11.89  -11.84
  -11.83  -11.83  -11.80  -11.79  -11.79  -11.76  -11.74  -11.74  -11.73  -11.70
  -11.69  -11.69  -11.67  -11.67  -11.66  -11.66  -11.65  -11.65  -11.64  -11.62
  -11.61  -11.60  -11.59  -11.59  -11.57  -11.56  -11.56  -11.56  -11.55  -11.55
  -11.54  -11.53  -11.53  -11.53  -11.52  -11.52  -11.50  -11.50  -11.50  -11.50
  -11.49  -11.48  -11.48  -11.48  -11.47  -11.47  -11.47  -11.46  -11.46  -11.46
  -11.45  -11.45  -11.44  -11.43  -11.43  -11.43  -11.42  -11.41  -11.40  -11.40
  -11.40  -11.40  -11.39  -11.39  -11.39  -11.39  -11.38  -11.38  -11.38  -11.37
  -11.37  -11.37  -11.36  -11.35  -11.35  -11.34  -11.34  -11.33  -11.33  -11.28
  -11.28  -11.27  -11.26  -11.26  -11.25  -11.25  -11.25  -11.24  -11.24  -11.23
  -11.22  -11.22  -11.21  -11.21  -11.20  -11.18  -11.17  -11.17  -11.17  -11.16
  -11.15  -11.15  -11.15  -11.14  -11.14  -11.14  -11.14  -11.08   -1.25   -0.84
   -0.80   -0.77   -0.74   -0.72   -0.64   -0.58   -0.55   -0.54   -0.52   -0.46
   -0.38   -0.35   -0.33   -0.33   -0.28   -0.25   -0.22   -0.20   -0.19   -0.17
   -0.16   -0.15   -0.14   -0.14   -0.14   -0.11   -0.09   -0.07   -0.06   -0.06
   -0.05   -0.04   -0.03   -0.02   -0.02    0.00    0.01    0.01    0.02    0.04
    0.04    0.06    0.08    0.08    0.09    0.11    0.11    0.11    0.12    0.12
    0.13    0.13    0.13    0.16    0.16    0.17    0.20    0.21    0.22    0.24
    0.24    0.25    0.25    0.26    0.28    0.30    0.31    0.37    0.37    0.38
    0.39    0.39    0.40    0.40    0.43    0.43    0.44    0.46    0.47    0.48
    0.48    0.49    0.50    0.50    0.50    0.53    0.53    0.53    0.53    0.53
    0.54    0.56    0.56    0.56    0.57    0.57    0.58    0.60    0.60    0.61
    0.61    0.62    0.62    0.63    0.63    0.64    0.64    0.64    0.65    0.66
    0.67    0.68    0.69    0.69    0.72    0.72    0.73    0.74    0.75    0.76
    0.77    0.79    0.79    0.79    0.80    0.81    0.81    0.81    0.83    0.87
    0.88    0.89    0.90    0.90    0.92    0.92    0.93    0.94    0.94    0.96
    0.97    0.98    0.98    1.03    1.04    1.06    1.08    1.09    1.10    1.11
    1.13    1.13    1.14    1.16    1.17    1.20    1.23    1.26    1.26    1.32
    1.32    1.32    1.35    1.36    1.38    1.45    1.47    1.48    1.48    1.50
    1.51    1.53    1.54    1.56    1.57    1.58    1.58    1.59    1.63    1.63
    1.66    1.67    1.68    1.69    1.73    1.74    1.76    1.76    1.78    1.79
    1.79    1.79    1.81    1.83    1.83    1.85    1.86    1.88    1.88    1.89
    1.90    1.92    1.93    1.96    1.98    1.98    2.00    2.01    2.04    2.06
    2.11    2.13    2.13    2.15    2.17    2.17    2.18    2.18    2.19    2.20
    2.22    2.22    2.22    2.23    2.24    2.27    2.27    2.27    2.28    2.33
    2.34    2.35    2.35    2.36    2.37    2.37    2.38    2.41    2.41    2.42
    2.43    2.44    2.44    2.45    2.45    2.45    2.48    2.49    2.51    2.51
    2.51    2.52    2.53    2.53    2.54    2.54    2.54    2.55    2.56    2.56
    2.57    2.58    2.59    2.62    2.62    2.62    2.63    2.63    2.64    2.65
    2.66    2.66    2.66    2.67    2.67    2.68    2.68    2.68    2.69    2.69
    2.69    2.72    2.74    2.74    2.75    2.76    2.76    2.77    2.77    2.78
    2.79    2.80    2.82    2.82    2.83    2.85    2.85    2.87    2.87    2.90
    2.90    2.91    2.91    2.91    2.93    2.94    2.95    2.96    2.97    2.97
    2.98    3.00    3.00    3.00    3.00    3.01    3.01    3.02    3.02    3.04
    3.04    3.05    3.06    3.06    3.07    3.07    3.08    3.10    3.10    3.10
    3.10    3.11    3.11    3.12    3.13    3.13    3.14    3.14    3.15    3.16
    3.18    3.18    3.18    3.19    3.19    3.20    3.20    3.21    3.22    3.22
    3.23    3.23    3.24    3.24    3.24    3.24    3.26    3.26    3.26    3.26
    3.26    3.27    3.28    3.28    3.29    3.30    3.30    3.32    3.32    3.32
    3.32    3.33    3.33    3.33    3.34    3.34    3.36    3.37    3.38    3.38
    3.38    3.39    3.41    3.41    3.42    3.43    3.43    3.43    3.44    3.45
    3.46    3.47    3.47    3.48    3.49    3.49    3.50    3.50    3.51    3.51
    3.52    3.52    3.53    3.53    3.53    3.56    3.56    3.57    3.57    3.58
    3.58    3.58    3.60    3.61    3.61    3.63    3.63    3.64    3.64    3.65
    3.65    3.65    3.66    3.66    3.66    3.68    3.68    3.69    3.72    3.72
    3.73    3.75    3.75    3.76    3.77    3.79    3.79    3.80    3.80    3.80
    3.83    3.83    3.86    3.86    3.87    3.88    3.89    3.89    3.90    3.90
    3.90    3.91    3.92    3.93    3.94    3.95    3.98    3.98    4.00    4.03
    4.03    4.05    4.15    4.19    4.19    4.38    4.40    4.41    4.44    4.49
    4.53    4.58    4.58    4.79    6.05    6.05    6.23    6.65
 
 
   CELL_PARAMETERS
   24.54239043    0.00076274    0.00000017
    0.00076273   24.54229147    0.00000114
    0.00000023    0.00000151   32.45460242

   System Density [g/cm^3] :              3.9303362633


   System Volume [A.U.^3] :          19548.2670367029


   Center of mass square displacement (a.u.):   0.000000

   Total stress (GPa)
        0.00482315         0.00528264        -0.00000380
        0.00528264         0.00469945         0.00000068
       -0.00000380         0.00000068         0.07333300
   ATOMIC_POSITIONS
   Ag      0.21306238244063E+01     0.13898549661643E+02     0.18224405017774E+02
   Ag      0.56006267672415E+01     0.10428177408936E+02     0.18224388210416E+02
   Ag      0.67306744247512E+01     0.15028105421933E+02     0.18618336761820E+02
   Ag      0.10005195102314E+01     0.92985612428201E+01     0.18618032417640E+02
   Ag      0.21502432458644E+01     0.10448008218282E+02     0.14027101794175E+02
   Ag      0.21313425338929E+01     0.13897852969953E+02     0.98307053293154E+01
   Ag      0.55999206609626E+01     0.10428902192884E+02     0.98306980241394E+01
   Ag      0.67306969122991E+01     0.15028133416886E+02     0.94369651013682E+01
   Ag      0.69408302345402E+01     0.90895798475872E+01     0.14027165254423E+02
   Ag      0.79182477405639E+00     0.15238522377396E+02     0.14027178085074E+02
   Ag      0.55818513874560E+01     0.13879561857422E+02     0.14027042691312E+02
   Ag      0.10005115322284E+01     0.92985626251174E+01     0.94373720996943E+01
   Mg      0.22239103267533E+02     0.22395035573407E+02     0.26246466202712E+02
   Mg      0.22237234450851E+02     0.18334970402246E+02     0.30268972197749E+02
   Mg      0.18172113367669E+02     0.22400263924942E+02     0.30267772454792E+02
   Mg      0.18177414865893E+02     0.18333171003392E+02     0.26246495925761E+02
   Mg      0.22167957057992E+02     0.22441540411885E+02     0.18172442811282E+02
   Mg      0.22272177124900E+02     0.18300274268125E+02     0.22193075193323E+02
   Mg      0.18173438047010E+02     0.22399266438502E+02     0.22229196539386E+02
   Mg      0.18131127380958E+02     0.18405165346076E+02     0.18172481360908E+02
   Mg      0.22168927408221E+02     0.22439830040770E+02     0.99020446899119E+01
   Mg      0.21967498172158E+02     0.18604729783971E+02     0.14034756530346E+02
   Mg      0.18113214418020E+02     0.22459887627770E+02     0.14036908011616E+02
   Mg      0.18132836150703E+02     0.18404190827264E+02     0.99020085486338E+01
   Mg      0.22240374440746E+02     0.22394044683957E+02     0.18344196126245E+01
   Mg      0.22277799247067E+02     0.18294649241908E+02     0.58868529660292E+01
   Mg      0.18174182341698E+02     0.22398517814273E+02     0.58485321532359E+01
   Mg      0.18178403389207E+02     0.18331895042363E+02     0.18343894912967E+01
   Mg      0.22182873854883E+02     0.14234264108775E+02     0.26321488663546E+02
   Mg      0.22176314260219E+02     0.10096071563811E+02     0.30268813702996E+02
   Mg      0.18155088718650E+02     0.14231033857316E+02     0.30268438399067E+02
   Mg      0.18146277775720E+02     0.10094329118615E+02     0.26281462438227E+02
   Mg      0.21814544389457E+02     0.14188905825313E+02     0.18114810900532E+02
   Mg      0.22144859800754E+02     0.10141864018872E+02     0.22322384168366E+02
   Mg      0.18140135651652E+02     0.14234515682595E+02     0.22287447541102E+02
   Mg      0.17976656218612E+02     0.10017201020532E+02     0.18222781689943E+02
   Mg      0.21824886316413E+02     0.14186389944047E+02     0.99538547421011E+01
   Mg      0.21787460669810E+02     0.10137336939689E+02     0.14032285159545E+02
   Mg      0.17915111410578E+02     0.14329058026314E+02     0.14036651105704E+02
   Mg      0.17977828327906E+02     0.10017765978849E+02     0.98519566259734E+01
   Mg      0.22185109440611E+02     0.14233153407403E+02     0.17630724931009E+01
   Mg      0.22154755928283E+02     0.10145362091688E+02     0.57599079833138E+01
   Mg      0.18144063570134E+02     0.14233801057420E+02     0.57895319493329E+01
   Mg      0.18147312177709E+02     0.10095149106679E+02     0.17991775659184E+01
   Mg      0.22238954836416E+02     0.59950350239416E+01     0.26255787311004E+02
   Mg      0.22239063915846E+02     0.19223021529377E+01     0.30268245324036E+02
   Mg      0.18166245581372E+02     0.59951523677988E+01     0.30268244671630E+02
   Mg      0.18170133350429E+02     0.19261570997591E+01     0.26248121856025E+02
   Mg      0.22073119293593E+02     0.58293145831480E+01     0.18108521684165E+02
   Mg      0.22236709046911E+02     0.19159200344777E+01     0.22228849357929E+02
   Mg      0.18159749350150E+02     0.59927680740576E+01     0.22228861409047E+02
   Mg      0.18135896592169E+02     0.18919694623146E+01     0.18165240698663E+02
   Mg      0.22077729370429E+02     0.58339206299443E+01     0.99639512669744E+01
   Mg      0.22164776186143E+02     0.18885911668574E+01     0.14036547679731E+02
   Mg      0.18132504206644E+02     0.59208383807337E+01     0.14036548653766E+02
   Mg      0.18136315823944E+02     0.18923906240303E+01     0.99097438560308E+01
   Mg      0.22241021814178E+02     0.59971036299504E+01     0.18269889188937E+01
   Mg      0.22238145760701E+02     0.19175173309063E+01     0.58490082796078E+01
   Mg      0.18161341120610E+02     0.59942087237434E+01     0.58489983444398E+01
   Mg      0.18170567992127E+02     0.19265967601972E+01     0.18318934150337E+01
   Mg      0.14104037652903E+02     0.22401538443048E+02     0.26248148133860E+02
   Mg      0.14107830724699E+02     0.18332386968588E+02     0.30268245216294E+02
   Mg      0.10034881150513E+02     0.22405365161871E+02     0.30268244362056E+02
   Mg      0.10034976882628E+02     0.18332558659278E+02     0.26255881866758E+02
   Mg      0.14138667603053E+02     0.22436289789069E+02     0.18165294382455E+02
   Mg      0.14114483618882E+02     0.18335108588523E+02     0.22228957560426E+02
   Mg      0.10037530699173E+02     0.22412008486085E+02     0.22228963474537E+02
   Mg      0.10201054499368E+02     0.18498649246490E+02     0.18108824563204E+02
   Mg      0.14138241892611E+02     0.22435866543289E+02     0.99096942148074E+01
   Mg      0.14141867458682E+02     0.18407630145182E+02     0.14036549080618E+02
   Mg      0.10109956034339E+02     0.22439590277388E+02     0.14036548540004E+02
   Mg      0.10196446908636E+02     0.18494041651543E+02     0.99636582294339E+01
   Mg      0.14103595256415E+02     0.22401101583796E+02     0.18318666255289E+01
   Mg      0.14112886474678E+02     0.18333666893202E+02     0.58489039426038E+01
   Mg      0.10036083835749E+02     0.22410416106798E+02     0.58488968337161E+01
   Mg      0.10032907184411E+02     0.18330489021209E+02     0.18268927753832E+01
   Mg      0.14127702501582E+02     0.14233045895289E+02     0.26281506776202E+02
   Mg      0.14118847789450E+02     0.10096207026082E+02     0.30268435801107E+02
   Mg      0.10097422364336E+02     0.14231176561717E+02     0.30268810596750E+02
   Mg      0.10090883488225E+02     0.10093096750134E+02     0.26321461103020E+02
   Mg      0.14297390038016E+02     0.14311050639363E+02     0.18222754032644E+02
   Mg      0.14133874924811E+02     0.10093182850792E+02     0.22287457561487E+02
   Mg      0.10129099160250E+02     0.14185824571319E+02     0.22322453808022E+02
   Mg      0.10459343671401E+02     0.10139694357868E+02     0.18114787474555E+02
   Mg      0.14296212985605E+02     0.14310481523995E+02     0.98519882987526E+01
   Mg      0.14359211710060E+02     0.99994272331846E+01     0.14036654474640E+02
   Mg      0.10486890513115E+02     0.14191606350356E+02     0.14032291464470E+02
   Mg      0.10449004756612E+02     0.10142207160758E+02     0.99538802475323E+01
   Mg      0.14126668768638E+02     0.14232220834546E+02     0.17991274681043E+01
   Mg      0.14129943653204E+02     0.10093891565635E+02     0.57895159761451E+01
   Mg      0.10119211616539E+02     0.14182313300057E+02     0.57598177250556E+01
   Mg      0.10088647417277E+02     0.10094199105771E+02     0.17630910075257E+01
   Mg      0.14096658194278E+02     0.59944205807964E+01     0.26246477824201E+02
   Mg      0.14101997661787E+02     0.19273751291385E+01     0.30267768738263E+02
   Mg      0.10036614033123E+02     0.59925402202933E+01     0.30268967432404E+02
   Mg      0.10034883416796E+02     0.19326630624617E+01     0.26246500873953E+02
   Mg      0.14143026570954E+02     0.59231812416094E+01     0.18172461112959E+02
   Mg      0.14100906963944E+02     0.19286688998612E+01     0.22229204890436E+02
   Mg      0.10001843508245E+02     0.60274379186259E+01     0.22193100047039E+02
   Mg      0.10106692895815E+02     0.18863913029726E+01     0.18172495583021E+02
   Mg      0.14141315832194E+02     0.59241538478011E+01     0.99020275978538E+01
   Mg      0.14161459119332E+02     0.18685485810541E+01     0.14036906956464E+02
   Mg      0.10306421254081E+02     0.57229914995925E+01     0.14034756211921E+02
   Mg      0.10105716871351E+02     0.18881033457923E+01     0.99019920023623E+01
   Mg      0.14095664426746E+02     0.59956938941565E+01     0.18344023612268E+01
   Mg      0.14100152130903E+02     0.19294203493482E+01     0.58485208605903E+01
   Mg      0.99962185840725E+01     0.60330611243331E+01     0.58868271374800E+01
   Mg      0.10033606851753E+02     0.19336550518648E+01     0.18343772662313E+01
   Mg      0.59354431364884E+01     0.22425333540923E+02     0.26281499431924E+02
   Mg      0.59335393973352E+01     0.18395125674207E+02     0.30268811131837E+02
   Mg      0.17984733285460E+01     0.22416524961980E+02     0.30268438390853E+02
   Mg      0.17954061052150E+01     0.18388601189155E+02     0.26321452653119E+02
   Mg      0.60133622219958E+01     0.22594950814414E+02     0.18222739299010E+02
   Mg      0.58881496163115E+01     0.18426690398187E+02     0.22322421636987E+02
   Mg      0.17954768253283E+01     0.22431609874058E+02     0.22287450638110E+02
   Mg      0.18420469595218E+01     0.18757131163826E+02     0.18114744598051E+02
   Mg      0.60127930158728E+01     0.22593776865605E+02     0.98519969497346E+01
   Mg      0.58941271070729E+01     0.18784578109807E+02     0.14032287553637E+02
   Mg      0.17017288316884E+01     0.22656846293697E+02     0.14036653744417E+02
   Mg      0.18445572276782E+01     0.18746794740268E+02     0.99539212338717E+01
   Mg      0.59346190055770E+01     0.22424300717795E+02     0.17991330827172E+01
   Mg      0.58846369559451E+01     0.18416806336531E+02     0.57598506423154E+01
   Mg      0.17961848661350E+01     0.22427681016363E+02     0.57895232859937E+01
   Mg      0.17965104229578E+01     0.18386361666364E+02     0.17631055710483E+01
   Mg      0.59969648283062E+01     0.14294686387564E+02     0.26476664299567E+02
   Mg      0.59691879118385E+01     0.10059607913812E+02     0.30267140504333E+02
   Mg      0.17619849509120E+01     0.14266872538822E+02     0.30267145478983E+02
   Mg      0.17342129339203E+01     0.10031844783821E+02     0.26476639346139E+02
   Mg      0.59045975602181E+01     0.10124421450770E+02     0.22771862658299E+02
   Mg      0.18266939257105E+01     0.14202201262374E+02     0.22771870326376E+02
   Mg      0.59954424590551E+01     0.14293161433929E+02     0.16025838683075E+01
   Mg      0.59003315973480E+01     0.10128677630566E+02     0.53133779571686E+01
   Mg      0.18309596185143E+01     0.14197928764769E+02     0.53133843928071E+01
   Mg      0.17357350116986E+01     0.10033363462205E+02     0.16026235267060E+01
   Mg      0.59358718397067E+01     0.59381152418691E+01     0.26321480551306E+02
   Mg      0.59326750008032E+01     0.19103581542241E+01     0.30268432903963E+02
   Mg      0.17976113639594E+01     0.59315668127127E+01     0.30268811395633E+02
   Mg      0.17958394972325E+01     0.19016183025371E+01     0.26281449950580E+02
   Mg      0.58904319314105E+01     0.55698519826107E+01     0.18114793404032E+02
   Mg      0.59361187997417E+01     0.18954286357525E+01     0.22287449211092E+02
   Mg      0.18434097106064E+01     0.59003038881708E+01     0.22322339743457E+02
   Mg      0.17187656345856E+01     0.17322098490422E+01     0.18222762244629E+02
   Mg      0.58879118503331E+01     0.55801972660949E+01     0.99538681159090E+01
   Mg      0.60306222204791E+01     0.16705942405528E+01     0.14036648241763E+02
   Mg      0.18386412412478E+01     0.55428802984318E+01     0.14032284152379E+02
   Mg      0.17193294882230E+01     0.17333837386901E+01     0.98519704450745E+01
   Mg      0.59347644593794E+01     0.59403477751397E+01     0.17630691039399E+01
   Mg      0.59354037351729E+01     0.18993599120850E+01     0.57895229444670E+01
   Mg      0.18469091547912E+01     0.59102031642248E+01     0.57599488427723E+01
   Mg      0.17966611035551E+01     0.19026540326872E+01     0.17991867924547E+01
   O       0.18171080179663E+02     0.18327525215139E+02     0.30240026882108E+02
   O       0.18172855867211E+02     0.22399543347915E+02     0.26222668545408E+02
   O       0.22250687120915E+02     0.18321624703145E+02     0.26225305708140E+02
   O       0.22244612387518E+02     0.22401269018886E+02     0.30240022105955E+02
   O       0.18179278749521E+02     0.18333389676327E+02     0.22195546335851E+02
   O       0.18149532752132E+02     0.22423797693201E+02     0.18130732816174E+02
   O       0.22176812834129E+02     0.18395841778086E+02     0.18082765113868E+02
   O       0.22239226132605E+02     0.22393296192887E+02     0.22195415638042E+02
   O       0.18085022794793E+02     0.18446613381025E+02     0.14017728439721E+02
   O       0.18148572168299E+02     0.22424745300429E+02     0.99016969425009E+01
   O       0.22171325274492E+02     0.18401346186103E+02     0.99535793941627E+01
   O       0.22127141159418E+02     0.22487366501333E+02     0.14017731922059E+02
   O       0.18177386684419E+02     0.18335701152741E+02     0.58342047603488E+01
   O       0.18172400119717E+02     0.22399994542008E+02     0.18046377916826E+01
   O       0.22248389787143E+02     0.18323907557588E+02     0.17989694091069E+01
   O       0.22236894224089E+02     0.22395195352065E+02     0.58343407809944E+01
   O       0.18144196074812E+02     0.10100026534728E+02     0.30239781672418E+02
   O       0.18162196559266E+02     0.14228742756511E+02     0.26251366982188E+02
   O       0.22186603509191E+02     0.10102549664153E+02     0.26289024884079E+02
   O       0.22199569111550E+02     0.14225861353238E+02     0.30240056416656E+02
   O       0.18129653072504E+02     0.10097243493136E+02     0.22269084164967E+02
   O       0.18045475661948E+02     0.14315538870932E+02     0.18219406122208E+02
   O       0.21640425067005E+02     0.10153112427364E+02     0.18096918000278E+02
   O       0.22202513820349E+02     0.14216783186416E+02     0.22258447352648E+02
   O       0.18024560016634E+02     0.99861230608599E+01     0.14018457545291E+02
   O       0.18044591002173E+02     0.14316659450706E+02     0.98148719408239E+01
   O       0.21631085510337E+02     0.10150301614678E+02     0.99393231600073E+01
   O       0.21501943894415E+02     0.14128843074024E+02     0.14019724349698E+02
   O       0.18127384981713E+02     0.10095729996797E+02     0.57606868450895E+01
   O       0.18159769201825E+02     0.14229298806140E+02     0.17738707667365E+01
   O       0.22182315879239E+02     0.10100982328119E+02     0.17349703661274E+01
   O       0.22187149890933E+02     0.14219299863956E+02     0.57611577360962E+01
   O       0.18170476915258E+02     0.19264516996240E+01     0.30240587958486E+02
   O       0.18170904967618E+02     0.59980267589893E+01     0.26220481303480E+02
   O       0.22241907559574E+02     0.19269172268658E+01     0.26220465036463E+02
   O       0.22240917745626E+02     0.59970207483799E+01     0.30239615901750E+02
   O       0.18168139265697E+02     0.19241222980343E+01     0.22197599888142E+02
   O       0.18119525053266E+02     0.59088921406358E+01     0.18132003875287E+02
   O       0.22152970512457E+02     0.18757867202759E+01     0.18131998742876E+02
   O       0.22253223186311E+02     0.60095152435884E+01     0.22165447196962E+02
   O       0.18151831606747E+02     0.19078097407693E+01     0.14016964323322E+02
   O       0.18118354898253E+02     0.59069540990552E+01     0.99012474287940E+01
   O       0.22151028596387E+02     0.18746112795473E+01     0.99012497737287E+01
   O       0.22188696610007E+02     0.59448415145530E+01     0.14019639944942E+02
   O       0.18167253582113E+02     0.19232504801672E+01     0.58320879867953E+01
   O       0.18170072237873E+02     0.59970168818095E+01     0.18060926907671E+01
   O       0.22240913405734E+02     0.19260923211178E+01     0.18061108165808E+01
   O       0.22247814853057E+02     0.60041168307496E+01     0.58617510662509E+01
   O       0.10032994987469E+02     0.18330478295577E+02     0.30239627738184E+02
   O       0.10032071462306E+02     0.22400663774937E+02     0.26220581117177E+02
   O       0.14103129543095E+02     0.18329502417590E+02     0.26220573375078E+02
   O       0.14103586880063E+02     0.22401081086109E+02     0.30240583488309E+02
   O       0.10021040808288E+02     0.18318514657301E+02     0.22165883600266E+02
   O       0.10121814219442E+02     0.22452486439673E+02     0.18132185474394E+02
   O       0.14154943815910E+02     0.18419496031430E+02     0.18132160851087E+02
   O       0.14106301914904E+02     0.22403831191252E+02     0.22197685442103E+02
   O       0.10085368363955E+02     0.18383039072968E+02     0.14019629612960E+02
   O       0.10123748953816E+02     0.22453647207842E+02     0.99010638325718E+01
   O       0.14156107699634E+02     0.18421436287681E+02     0.99010886512910E+01
   O       0.14122896065937E+02     0.22420681864739E+02     0.14016955233570E+02
   O       0.10026415618566E+02     0.18323895059764E+02     0.58613254121311E+01
   O       0.10033076794705E+02     0.22401500376631E+02     0.18060001581531E+01
   O       0.14103958890408E+02     0.18330506440553E+02     0.18060059321977E+01
   O       0.14107171299826E+02     0.22404704233416E+02     0.58320047473089E+01
   O       0.10073813784112E+02     0.10101192685005E+02     0.30240047824571E+02
   O       0.10086911550781E+02     0.14224574922990E+02     0.26289074342074E+02
   O       0.14111747164671E+02     0.10098396252809E+02     0.26251319144200E+02
   O       0.14129875955223E+02     0.14226943953549E+02     0.30239779587946E+02
   O       0.10070895672897E+02     0.10110698066150E+02     0.22258348904973E+02
   O       0.10633589634404E+02     0.14176032053968E+02     0.18097357571820E+02
   O       0.14228364821950E+02     0.10013264788948E+02     0.18219501831347E+02
   O       0.14144645709144E+02     0.14230024142601E+02     0.22269275211748E+02
   O       0.10772694582894E+02     0.10200820614060E+02     0.14019731888974E+02
   O       0.10642878336834E+02     0.14178836199986E+02     0.99389007285232E+01
   O       0.14229248071548E+02     0.10012149960920E+02     0.98147727547811E+01
   O       0.14249704804602E+02     0.14342723745586E+02     0.14018459444321E+02
   O       0.10086267264443E+02     0.10108166652137E+02     0.57612432943055E+01
   O       0.10091207157200E+02     0.14226132155381E+02     0.17349171352695E+01
   O       0.14114171990056E+02     0.10097830453482E+02     0.17739146963504E+01
   O       0.14146911651380E+02     0.14231523873866E+02     0.57604910457246E+01
   O       0.10029344085461E+02     0.19262766747769E+01     0.30240017525925E+02
   O       0.10023339799421E+02     0.60060650797002E+01     0.26225319955574E+02
   O       0.14101270326447E+02     0.19280613480744E+01     0.26222680077600E+02
   O       0.14102930846354E+02     0.60000651022310E+01     0.30240015865820E+02
[...]
   O       0.19199756154838E-05    -0.20129319708902E-06    -0.98426549748506E-05
   O      -0.35604967756256E-03     0.86737624393557E-04    -0.12814474284441E-04
   O       0.76959858857000E-04    -0.63185718945048E-04     0.26507982276186E-04
   O       0.10232074407771E-04     0.17898275003511E-04     0.25625203224723E-03
   O      -0.49186623191925E-04    -0.16040606804267E-04     0.24465868397747E-04
   O      -0.11251555751734E-03    -0.62969556904881E-04     0.25323340638313E-03
   O      -0.42118552377723E-04    -0.26566416914370E-04     0.32164961416717E-04
   O       0.46938912009818E-04    -0.10860332709916E-04     0.69205555919195E-04
   O       0.44337146439679E-05     0.43939473918933E-05     0.20150729851332E-03
   O      -0.34437579169341E-04    -0.41634035145241E-04     0.29024866052376E-03
   O      -0.41604232329777E-04    -0.34695341812482E-04     0.29059109125765E-03
   O       0.94704253718559E-05     0.94517370094161E-05     0.41549079716516E-03
   O      -0.39853186773147E-04    -0.39617807417284E-04     0.15427445350215E-03
   O       0.30772022596629E-05     0.89281311600594E-04     0.18608409739449E-03
   O       0.89274062063454E-04     0.32215949159973E-05     0.18612603408397E-03
   O       0.13623252251297E-04     0.14072188073627E-04     0.15985341544843E-03
   O       0.22065850275813E-05     0.23277070944983E-05     0.24246760584484E-03
   O      -0.18690468323538E-04    -0.86542685209912E-04     0.18339168592777E-03
   O      -0.86573887830280E-04    -0.18739075088055E-04     0.18352459120974E-03
   O       0.98479748374559E-06     0.12684890506060E-05     0.33880155396327E-03
   O       0.37896710189735E-04     0.37585243818699E-04     0.14207186739934E-03
   O       0.59807109544928E-04     0.52553057727660E-04     0.29314703195849E-03
   O       0.52789026877899E-04     0.59205905532565E-04     0.29318217929461E-03
   O      -0.11881942775082E-04    -0.82250795113859E-05     0.16858650430813E-03
   O      -0.99890190871450E-05    -0.10010257347386E-04     0.41555567699620E-03
   O       0.41374069964749E-04     0.33305586491318E-04     0.29039291785990E-03
   O       0.33512816506265E-04     0.41314711860406E-04     0.29004857040938E-03
   O      -0.45705534630528E-05    -0.47704971907698E-05     0.20190745055940E-03
   O      -0.15293208795381E-04    -0.15801478905903E-04     0.15879666014587E-03
   O      -0.89908699994747E-04    -0.45721347488381E-05     0.18525745574040E-03
   O      -0.41219752422093E-05    -0.90279835520627E-04     0.18597257078413E-03
   O       0.39027676031481E-04     0.38506487008646E-04     0.15405609773030E-03
   O      -0.26531478580123E-05    -0.24257158689764E-05     0.33876832047894E-03
   O       0.84784096994605E-04     0.18124208403912E-04     0.18394654423393E-03
   O       0.18538119287909E-04     0.84451058440817E-04     0.18346923527538E-03
   O      -0.32701315061574E-05    -0.32770967237281E-05     0.24167627767615E-03
   O       0.87792663965333E-05     0.86685310710880E-05     0.16776527623255E-03
   O      -0.53791444742493E-04    -0.59387073546333E-04     0.29323636671931E-03
   O      -0.59211992145637E-04    -0.53779188870159E-04     0.29296237810235E-03
   O      -0.37937350027289E-04    -0.38260896958264E-04     0.14246206505728E-03
   O      -0.92865148033348E-05     0.13252158551017E-04     0.48504590531768E-04
   O      -0.56155308967124E-04    -0.38195933867716E-04     0.34182153351051E-04
   O      -0.98563395890489E-04    -0.47669732153228E-04     0.19692152441312E-03
   O      -0.13886101743287E-04    -0.44359099042147E-05     0.35961594452981E-03
   O       0.76275280386347E-04    -0.13274281792087E-04     0.87265414311571E-04
   O       0.73047946162210E-04    -0.70006765354204E-04     0.62436646958948E-04
   O      -0.36087966935565E-03     0.78493113422742E-04    -0.21901959748895E-04
   O      -0.27028892282536E-04    -0.26645847868182E-04    -0.32325141040802E-04
   O      -0.11522657378762E-04    -0.18945121914671E-04     0.25685112376652E-03
   O      -0.77195245817194E-04     0.62224534216792E-04     0.26191661824665E-04
   O       0.35721519333985E-03    -0.88250420584339E-04    -0.12802803333483E-04
   O      -0.31807218885994E-05    -0.99631391797719E-06    -0.96637505624238E-05
   O      -0.49118032690407E-04     0.94895678928507E-05     0.69446694820601E-04
   O       0.40436755552946E-04     0.26501341039263E-04     0.31938527741019E-04
   O       0.11284371688514E-03     0.62001812515087E-04     0.25290894868357E-03
   O       0.48302269796676E-04     0.14194430958166E-04     0.24370709132440E-04
   O      -0.57889127485778E-05    -0.98423957347958E-05     0.29233531133335E-03
   O      -0.71684430866876E-04     0.71410480337227E-04     0.23424964096852E-03
   O       0.16105003118742E-04    -0.15852823961676E-04     0.17367412569291E-03
   O       0.95065261750753E-05     0.54128950455348E-05     0.29220192306664E-03
   O      -0.36243201112339E-04     0.43234914544333E-04     0.14347467208661E-03
   O       0.19200714712432E-04    -0.18818297483566E-04     0.27579589051648E-03
   O      -0.28562700756211E-04     0.27070435702836E-04     0.18757835456784E-03
   O      -0.44647881661235E-04     0.35145914192441E-04     0.14282282240414E-03
   O       0.13745263853622E-04    -0.76096222348370E-05     0.18692138037412E-03
   O       0.13066584027228E-04    -0.15593787921245E-04     0.26748786659090E-03
   O       0.31722676872462E-04    -0.32116990901332E-04     0.16710034897301E-03
   O       0.62562136071576E-05    -0.14637930327198E-04     0.18755975131694E-03
   O       0.36855075748659E-04    -0.63966623602931E-04     0.16869924062725E-03
   O       0.60641562725647E-04    -0.61138407952632E-04     0.24741111915720E-03
   O      -0.72539946780217E-05     0.65643871605335E-05     0.17309954872335E-03
   O       0.64262502216412E-04    -0.37932506671856E-04     0.16873582324551E-03
   O       0.13508067556800E-04    -0.94094731813187E-05     0.48971141717588E-04
   O      -0.47615118148807E-04    -0.98758232312935E-04     0.19722295756459E-03
   O      -0.38240683384197E-04    -0.55134913339122E-04     0.34297713494881E-04
   O      -0.42960118209498E-05    -0.14010161902457E-04     0.36039068991375E-03
   O      -0.13249804947827E-04     0.76500108206037E-04     0.87350367014154E-04
   O       0.78890368971457E-04    -0.36154656341576E-03    -0.21810064589940E-04
   O      -0.70293972262795E-04     0.71857016501608E-04     0.61995679406370E-04
   O      -0.26487478151879E-04    -0.27752589381426E-04    -0.32197881958787E-04
   O      -0.19687052644757E-04    -0.10853522069853E-04     0.25689154866075E-03
   O      -0.87476749698296E-04     0.35727645693041E-03    -0.12995142131252E-04
   O       0.61612173815362E-04    -0.77131707727517E-04     0.26390938609684E-04
   O      -0.97889728561083E-06    -0.14042470964353E-05    -0.97398988646737E-05
   O       0.99839441996072E-05    -0.49616380126885E-04     0.69280316779656E-04
   O       0.62267327454947E-04     0.11251024740993E-03     0.25326825615672E-03
   O       0.27024520408348E-04     0.39707695902147E-04     0.32397830367491E-04
   O       0.14548187394028E-04     0.48149941351817E-04     0.24440786629710E-04
   O       0.19192271597422E-05     0.19325905028359E-05     0.45595166032131E-03
   O      -0.10736764712661E-03     0.10883564455133E-03    -0.97509724504436E-04
   O       0.10886102715690E-03    -0.10760772128600E-03    -0.97369218176139E-04
   O      -0.22293167003006E-05    -0.22849675252684E-05     0.45488082462036E-03
   O       0.17698242031248E-05     0.20684730058639E-05     0.41052027322856E-03
   O      -0.24399307138622E-05    -0.28261299034856E-05     0.41046984899596E-03
   O       0.15918343460544E-04     0.15730797575374E-04     0.46661131359820E-03
   O       0.10240957341339E-03    -0.10383320142448E-03    -0.14668761708150E-03
   O      -0.10373102845481E-03     0.10234332955665E-03    -0.14692605423838E-03
   O      -0.15724825405520E-04    -0.15665695934797E-04     0.46662238038031E-03
   O       0.40376951577833E-05     0.13572403761119E-04     0.36011155766221E-03
   O       0.37079284559446E-04     0.55380984327453E-04     0.34442057961248E-04
   O       0.47391535407204E-04     0.96904447125202E-04     0.19699277329703E-03
   O      -0.13861320019079E-04     0.87825544425064E-05     0.49094875652892E-04
   O       0.26414764631553E-04     0.27127246812909E-04    -0.31593050141815E-04
   O       0.68504700950613E-04    -0.73300532870170E-04     0.63021929184819E-04
   O      -0.80286328919394E-04     0.35960268093737E-03    -0.21052864724410E-04
   O       0.12868713759563E-04    -0.78002145292137E-04     0.87478158509459E-04
   O       0.48478099424869E-06     0.24573817345216E-05    -0.97731553658723E-05
   O      -0.64351512270976E-04     0.76493340277566E-04     0.26476041945371E-04
   O       0.87318851398794E-04    -0.35670836732573E-03    -0.12802877570519E-04
   O       0.18458314736448E-04     0.10611566038267E-04     0.25693532325025E-03
   O      -0.14985245757454E-04    -0.50505492487022E-04     0.24576712474811E-04
   O      -0.26297066834894E-04    -0.41739591642389E-04     0.32283803803723E-04
   O      -0.62933087049248E-04    -0.11259188844873E-03     0.25371005168902E-03
   O      -0.10635774078563E-04     0.47073377000797E-04     0.68960343829520E-04
 


   Partial temperatures (for each ionic specie) 
   Species  Temp (K)   Mean Square Displacement (a.u.)
        1   7.69E-02     9.3967E-04
        2   2.31E+00     3.8060E-04
        3   2.56E-01     2.0737E-04
 
  nfi     ekinc              temph  tempp     etot                 enthal               econs                econt              vnhh    xnhh0   vnhp    xnhp0
    700    0.000008248331584    0.0    0.26   -2898.562428376148   -2898.544738470600   -2898.544389029835   -2898.544380781504   0.0000   0.0000   0.0000   0.0000
Elct. dipole 1   26.660565  Ionic dipole 1   -8.970659

   writing restart file (with schema): ./Ag16_334_59.save/
     restart      :     22.39s CPU     24.79s WALL (       7 calls)
    701    0.000008189693038    0.0    0.26   -2898.562429503424   -2898.544734201373   -2898.544385244409   -2898.544377054716   0.0000   0.0000   0.0000   0.0000
Elct. dipole 1   26.683160  Ionic dipole 1   -8.987858
    702    0.000008131966000    0.0    0.25   -2898.562430502839   -2898.544729959596   -2898.544381468161   -2898.544373336195   0.0000   0.0000   0.0000   0.0000
Elct. dipole 1   26.705426  Ionic dipole 1   -9.004883
    703    0.000008075150831    0.0    0.25   -2898.562431753770   -2898.544726124293   -2898.544378080441   -2898.544370005291   0.0000   0.0000   0.0000   0.0000
Elct. dipole 1   26.727363  Ionic dipole 1   -9.021733
    704    0.000008019244519    0.0    0.25   -2898.562432849375   -2898.544722288321   -2898.544374674444   -2898.544366655199   0.0000   0.0000   0.0000   0.0000
Elct. dipole 1   26.748970  Ionic dipole 1   -9.038409
    705    0.000007964250121    0.0    0.25   -2898.562433870429   -2898.544718532135   -2898.544371330993   -2898.544363366743   0.0000   0.0000   0.0000   0.0000
Elct. dipole 1   26.770249  Ionic dipole 1   -9.054910
    706    0.000007910173531    0.0    0.25   -2898.562435088023   -2898.544715126459   -2898.544368321205   -2898.544360411031   0.0000   0.0000   0.0000   0.0000
Elct. dipole 1   26.791199  Ionic dipole 1   -9.071238
    707    0.000007857030489    0.0    0.25   -2898.562436258206   -2898.544711826957   -2898.544365401143   -2898.544357544112   0.0000   0.0000   0.0000   0.0000
Elct. dipole 1   26.811822  Ionic dipole 1   -9.087390
    708    0.000007804828250    0.0    0.25   -2898.562437380969   -2898.544708633210   -2898.544362570789   -2898.544354765961   0.0000   0.0000   0.0000   0.0000
Elct. dipole 1   26.832117  Ionic dipole 1   -9.103370
    709    0.000007753571733    0.0    0.25   -2898.562438617827   -2898.544705706284   -2898.544359991628   -2898.544352238056   0.0000   0.0000   0.0000   0.0000
Elct. dipole 1   26.852087  Ionic dipole 1   -9.119175
    710    0.000007703266962    0.0    0.25   -2898.562439915086   -2898.544702991969   -2898.544357609906   -2898.544349906639   0.0000   0.0000   0.0000   0.0000
Elct. dipole 1   26.871730  Ionic dipole 1   -9.134807
    711    0.000007653914752    0.0    0.25   -2898.562441082458   -2898.544700299380   -2898.544355235186   -2898.544347581271   0.0000   0.0000   0.0000   0.0000
Elct. dipole 1   26.891050  Ionic dipole 1   -9.150267
    712    0.000007605509697    0.0    0.25   -2898.562442093029   -2898.544697601033   -2898.544352840428   -2898.544345234919   0.0000   0.0000   0.0000   0.0000
Elct. dipole 1   26.910045  Ionic dipole 1   -9.165553
    713    0.000007558048994    0.0    0.25   -2898.562443162997   -2898.544695112547   -2898.544350641730   -2898.544343083681   0.0000   0.0000   0.0000   0.0000
Elct. dipole 1   26.928718  Ionic dipole 1   -9.180668
    714    0.000007511532117    0.0    0.25   -2898.562444265326   -2898.544692806282   -2898.544348611941   -2898.544341100409   0.0000   0.0000   0.0000   0.0000
Elct. dipole 1   26.947069  Ionic dipole 1   -9.195610
    715    0.000007465959492    0.0    0.25   -2898.562445398775   -2898.544690680321   -2898.544346749636   -2898.544339283676   0.0000   0.0000   0.0000   0.0000
Elct. dipole 1   26.965100  Ionic dipole 1   -9.210382
    716    0.000007421341170    0.0    0.25   -2898.562446509054   -2898.544688679674   -2898.544345000324   -2898.544337578983   0.0000   0.0000   0.0000   0.0000
Elct. dipole 1   26.982812  Ionic dipole 1   -9.224982
    717    0.000007377683968    0.0    0.25   -2898.562447623546   -2898.544686830919   -2898.544343391110   -2898.544336013425   0.0000   0.0000   0.0000   0.0000
Elct. dipole 1   27.000205  Ionic dipole 1   -9.239413
    718    0.000007334977086    0.0    0.25   -2898.562448850499   -2898.544685241445   -2898.544342029886   -2898.544334694909   0.0000   0.0000   0.0000   0.0000
Elct. dipole 1   27.017283  Ionic dipole 1   -9.253674
    719    0.000007293207984    0.0    0.25   -2898.562450080405   -2898.544683800959   -2898.544340806867   -2898.544333513659   0.0000   0.0000   0.0000   0.0000
Elct. dipole 1   27.034045  Ionic dipole 1   -9.267766
    720    0.000007252371274    0.0    0.25   -2898.562451367195   -2898.544682562595   -2898.544339775703   -2898.544332523332   0.0000   0.0000   0.0000   0.0000
Elct. dipole 1   27.050494  Ionic dipole 1   -9.281689
    721    0.000007212461113    0.0    0.25   -2898.562452440269   -2898.544681254947   -2898.544338665514   -2898.544331453053   0.0000   0.0000   0.0000   0.0000
Elct. dipole 1   27.066631  Ionic dipole 1   -9.295446
    722    0.000007173470811    0.0    0.25   -2898.562453569044   -2898.544680146535   -2898.544337745358   -2898.544330571887   0.0000   0.0000   0.0000   0.0000
Elct. dipole 1   27.082457  Ionic dipole 1   -9.309035
    723    0.000007135421806    0.0    0.25   -2898.562454710816   -2898.544679193735   -2898.544336972210   -2898.544329836789   0.0000   0.0000   0.0000   0.0000
Elct. dipole 1   27.097975  Ionic dipole 1   -9.322458
    724    0.000007098293600    0.0    0.25   -2898.562455637795   -2898.544678169226   -2898.544336119297   -2898.544329021003   0.0000   0.0000   0.0000   0.0000
Elct. dipole 1   27.113184  Ionic dipole 1   -9.335716
    725    0.000007062031988    0.0    0.25   -2898.562456932998   -2898.544677653827   -2898.544335767898   -2898.544328705866   0.0000   0.0000   0.0000   0.0000
Elct. dipole 1   27.128088  Ionic dipole 1   -9.348809
    726    0.000007026640387    0.0    0.25   -2898.562458274833   -2898.544677323946   -2898.544335594952   -2898.544328568311   0.0000   0.0000   0.0000   0.0000
Elct. dipole 1   27.142690  Ionic dipole 1   -9.361739
    727    0.000006992135587    0.0    0.25   -2898.562459387419   -2898.544676902331   -2898.544335323775   -2898.544328331639   0.0000   0.0000   0.0000   0.0000
Elct. dipole 1   27.156991  Ionic dipole 1   -9.374506
    728    0.000006958555596    0.0    0.25   -2898.562460531380   -2898.544676649297   -2898.544335215317   -2898.544328256762   0.0000   0.0000   0.0000   0.0000
Elct. dipole 1   27.170993  Ionic dipole 1   -9.387111
    729    0.000006925901409    0.0    0.25   -2898.562461834860   -2898.544676694331   -2898.544335399649   -2898.544328473748   0.0000   0.0000   0.0000   0.0000
Elct. dipole 1   27.184696  Ionic dipole 1   -9.399556
    730    0.000006894115846    0.0    0.25   -2898.562463018015   -2898.544676755613   -2898.544335595401   -2898.544328701285   0.0000   0.0000   0.0000   0.0000
Elct. dipole 1   27.198103  Ionic dipole 1   -9.411840
    731    0.000006863146865    0.0    0.25   -2898.562464383413   -2898.544677133067   -2898.544336102974   -2898.544329239827   0.0000   0.0000   0.0000   0.0000
Elct. dipole 1   27.211216  Ionic dipole 1   -9.423966
    732    0.000006832961573    0.0    0.25   -2898.562465712841   -2898.544677606061   -2898.544336702265   -2898.544329869304   0.0000   0.0000   0.0000   0.0000
Elct. dipole 1   27.224041  Ionic dipole 1   -9.435934
    733    0.000006803567764    0.0    0.25   -2898.562466900290   -2898.544678067674   -2898.544337286897   -2898.544330483329   0.0000   0.0000   0.0000   0.0000
Elct. dipole 1   27.236578  Ionic dipole 1   -9.447745
    734    0.000006774993628    0.0    0.25   -2898.562468131026   -2898.544678703263   -2898.544338042800   -2898.544331267806   0.0000   0.0000   0.0000   0.0000
Elct. dipole 1   27.248829  Ionic dipole 1   -9.459401
    735    0.000006747272650    0.0    0.25   -2898.562469302884   -2898.544679410650   -2898.544338868373   -2898.544332121101   0.0000   0.0000   0.0000   0.0000
Elct. dipole 1   27.260794  Ionic dipole 1   -9.470902
    736    0.000006720414535    0.0    0.25   -2898.562470448102   -2898.544680220860   -2898.544339795176   -2898.544333074762   0.0000   0.0000   0.0000   0.0000
Elct. dipole 1   27.272477  Ionic dipole 1   -9.482249
    737    0.000006694369233    0.0    0.25   -2898.562471650909   -2898.544681215805   -2898.544340905579   -2898.544334211210   0.0000   0.0000   0.0000   0.0000
Elct. dipole 1   27.283880  Ionic dipole 1   -9.493445
    738    0.000006669055340    0.0    0.25   -2898.562472798163   -2898.544682279946   -2898.544342084479   -2898.544335415424   0.0000   0.0000   0.0000   0.0000
Elct. dipole 1   27.295007  Ionic dipole 1   -9.504489
    739    0.000006644421833    0.0    0.25   -2898.562473964680   -2898.544683486549   -2898.544343405605   -2898.544336761183   0.0000   0.0000   0.0000   0.0000
Elct. dipole 1   27.305862  Ionic dipole 1   -9.515384
    740    0.000006620475366    0.0    0.25   -2898.562475094876   -2898.544684779506   -2898.544344813374   -2898.544338192899   0.0000   0.0000   0.0000   0.0000
Elct. dipole 1   27.316445  Ionic dipole 1   -9.526130
    741    0.000006597258302    0.0    0.25   -2898.562476164563   -2898.544686134350   -2898.544346283879   -2898.544339686621   0.0000   0.0000   0.0000   0.0000
Elct. dipole 1   27.326759  Ionic dipole 1   -9.536729
    742    0.000006574806488    0.0    0.25   -2898.562477178185   -2898.544687554591   -2898.544347821139   -2898.544341246332   0.0000   0.0000   0.0000   0.0000
Elct. dipole 1   27.336805  Ionic dipole 1   -9.547181
    743    0.000006553110897    0.0    0.25   -2898.562478162893   -2898.544689065508   -2898.544349450896   -2898.544342897785   0.0000   0.0000   0.0000   0.0000
Elct. dipole 1   27.346587  Ionic dipole 1   -9.557490
    744    0.000006532113029    0.0    0.25   -2898.562479548768   -2898.544691094878   -2898.544351601341   -2898.544345069228   0.0000   0.0000   0.0000   0.0000
Elct. dipole 1   27.356108  Ionic dipole 1   -9.567654
    745    0.000006511742814    0.0    0.25   -2898.562480519919   -2898.544692824905   -2898.544353455077   -2898.544346943334   0.0000   0.0000   0.0000   0.0000
Elct. dipole 1   27.365372  Ionic dipole 1   -9.577677
