
     Program CP v.6.6 starts on 17Feb2021 at  4: 6:16 

     This program is part of the open-source Quantum ESPRESSO suite
     for quantum simulation of materials; please cite
         "P. Giannozzi et al., J. Phys.:Condens. Matter 21 395502 (2009);
         "P. Giannozzi et al., J. Phys.:Condens. Matter 29 465901 (2017);
          URL http://www.quantum-espresso.org", 
     in publications or presentations arising from this work. More details at
     http://www.quantum-espresso.org/quote

     Parallel version (MPI & OpenMP), running on     320 processor cores
     Number of MPI processes:               160
     Threads/MPI process:                     2

     MPI processes distributed on     4 nodes
     R & G space division:  proc/nbgrp/npool/nimage =     160
     Fft bands division:     nmany     =       1
     Waiting for input...
     Reading input from standard input

   Job Title: MD Simulation


   Atomic Pseudopotentials Parameters
   ----------------------------------

   Reading pseudopotential for specie #  1 from file :
   ./O.pz-n-rrkjus_psl.0.1.UPF
     Message from routine emend_upf/check:
     BEWARE !!! Possible out of bounds while fixing pseudo
     Message from routine emend_upf/check:
     BEWARE !!! Possible out of bounds while fixing pseudo
     Message from routine read_upf:
     Pseudo file O.pz-n-rrkjus_psl.0.1.UPF has been fixed on the fly.
     To avoid this message in the future, permanently fix 
     your pseudo files following these instructions: 
     https://gitlab.com/QEF/q-e/blob/master/upftools/how_to_fix_upf.md
   file type is UPF v.2

   Reading pseudopotential for specie #  2 from file :
   ./Ag.pz-d-rrkjus.UPF
   file type is UPF v.1

   Reading pseudopotential for specie #  3 from file :
   ./Mg.pz-bhs.UPF
   file type is UPF v.1
     file Ag.pz-d-rrkjus.UPF: wavefunction(s)  4D 5S renormalized


   Main Simulation Parameters (from input)
   ---------------------------------------
   Restart Mode       =       1   restart        
   Number of MD Steps =    7000
   Print out every           10 MD Steps
   Reads from unit    =      59
   Writes to unit     =      59
   MD Simulation time step            =       8.00
   Electronic fictitious mass (emass) =     300.00
   emass cut-off                      =       2.50

   Simulation Cell Parameters (from input)
   external pressure       =            0.00 [KBar]
   wmass (calculated)      =       949740.81 [AU]
   initial cell from CELL_PARAMETERS card
      12.63360000    0.00000000    0.00000000
       0.00000000   12.63360000    0.00000000
       0.00000000    0.00000000   16.84480000
   ibrav =    0
   alat  =    23.87404397
   a1    =    23.87404397    0.00000000    0.00000000
   a2    =     0.00000000   23.87404397    0.00000000
   a3    =     0.00000000    0.00000000   31.83205862
 
   b1    =     0.04188649    0.00000000    0.00000000
   b2    =     0.00000000    0.04188649    0.00000000
   b3    =     0.00000000    0.00000000    0.03141487
   omega =   18143.31767057

   Energy Cut-offs
   ---------------
   Ecutwfc =   50.0 Ry,      Ecutrho =  400.0 Ry,      Ecuts =  200.0 Ry
   Gcutwfc =   26.9     ,    Gcutrho =   76.0          Gcuts =   53.7
   NOTA BENE: refg, mmx =   0.050000  9600
   Eigenvalues calculated without the kinetic term contribution
   Orthog. with lagrange multipliers : eps =   0.10E-08,  max = 100
   verlet algorithm for electron dynamics
   with friction frice =  0.0500 , grease =  1.0000
   Electron dynamics : the temperature is not controlled

   Electronic states
   -----------------
   Number of Electrons=  1236, of States =   618
   Occupation numbers :
   2.00 2.00 2.00 2.00 2.00 2.00 2.00 2.00 2.00 2.00
   2.00 2.00 2.00 2.00 2.00 2.00 2.00 2.00 2.00 2.00
   2.00 2.00 2.00 2.00 2.00 2.00 2.00 2.00 2.00 2.00
   2.00 2.00 2.00 2.00 2.00 2.00 2.00 2.00 2.00 2.00
   2.00 2.00 2.00 2.00 2.00 2.00 2.00 2.00 2.00 2.00
   2.00 2.00 2.00 2.00 2.00 2.00 2.00 2.00 2.00 2.00
   2.00 2.00 2.00 2.00 2.00 2.00 2.00 2.00 2.00 2.00
   2.00 2.00 2.00 2.00 2.00 2.00 2.00 2.00 2.00 2.00
   2.00 2.00 2.00 2.00 2.00 2.00 2.00 2.00 2.00 2.00
   2.00 2.00 2.00 2.00 2.00 2.00 2.00 2.00 2.00 2.00
   2.00 2.00 2.00 2.00 2.00 2.00 2.00 2.00 2.00 2.00
   2.00 2.00 2.00 2.00 2.00 2.00 2.00 2.00 2.00 2.00
   2.00 2.00 2.00 2.00 2.00 2.00 2.00 2.00 2.00 2.00
   2.00 2.00 2.00 2.00 2.00 2.00 2.00 2.00 2.00 2.00
   2.00 2.00 2.00 2.00 2.00 2.00 2.00 2.00 2.00 2.00
   2.00 2.00 2.00 2.00 2.00 2.00 2.00 2.00 2.00 2.00
   2.00 2.00 2.00 2.00 2.00 2.00 2.00 2.00 2.00 2.00
   2.00 2.00 2.00 2.00 2.00 2.00 2.00 2.00 2.00 2.00
   2.00 2.00 2.00 2.00 2.00 2.00 2.00 2.00 2.00 2.00
   2.00 2.00 2.00 2.00 2.00 2.00 2.00 2.00 2.00 2.00
   2.00 2.00 2.00 2.00 2.00 2.00 2.00 2.00 2.00 2.00
   2.00 2.00 2.00 2.00 2.00 2.00 2.00 2.00 2.00 2.00
   2.00 2.00 2.00 2.00 2.00 2.00 2.00 2.00 2.00 2.00
   2.00 2.00 2.00 2.00 2.00 2.00 2.00 2.00 2.00 2.00
   2.00 2.00 2.00 2.00 2.00 2.00 2.00 2.00 2.00 2.00
   2.00 2.00 2.00 2.00 2.00 2.00 2.00 2.00 2.00 2.00
   2.00 2.00 2.00 2.00 2.00 2.00 2.00 2.00 2.00 2.00
   2.00 2.00 2.00 2.00 2.00 2.00 2.00 2.00 2.00 2.00
   2.00 2.00 2.00 2.00 2.00 2.00 2.00 2.00 2.00 2.00
   2.00 2.00 2.00 2.00 2.00 2.00 2.00 2.00 2.00 2.00
   2.00 2.00 2.00 2.00 2.00 2.00 2.00 2.00 2.00 2.00
   2.00 2.00 2.00 2.00 2.00 2.00 2.00 2.00 2.00 2.00
   2.00 2.00 2.00 2.00 2.00 2.00 2.00 2.00 2.00 2.00
   2.00 2.00 2.00 2.00 2.00 2.00 2.00 2.00 2.00 2.00
   2.00 2.00 2.00 2.00 2.00 2.00 2.00 2.00 2.00 2.00
   2.00 2.00 2.00 2.00 2.00 2.00 2.00 2.00 2.00 2.00
   2.00 2.00 2.00 2.00 2.00 2.00 2.00 2.00 2.00 2.00
   2.00 2.00 2.00 2.00 2.00 2.00 2.00 2.00 2.00 2.00
   2.00 2.00 2.00 2.00 2.00 2.00 2.00 2.00 2.00 2.00
   2.00 2.00 2.00 2.00 2.00 2.00 2.00 2.00 2.00 2.00
   2.00 2.00 2.00 2.00 2.00 2.00 2.00 2.00 2.00 2.00
   2.00 2.00 2.00 2.00 2.00 2.00 2.00 2.00 2.00 2.00
   2.00 2.00 2.00 2.00 2.00 2.00 2.00 2.00 2.00 2.00
   2.00 2.00 2.00 2.00 2.00 2.00 2.00 2.00 2.00 2.00
   2.00 2.00 2.00 2.00 2.00 2.00 2.00 2.00 2.00 2.00
   2.00 2.00 2.00 2.00 2.00 2.00 2.00 2.00 2.00 2.00
   2.00 2.00 2.00 2.00 2.00 2.00 2.00 2.00 2.00 2.00
   2.00 2.00 2.00 2.00 2.00 2.00 2.00 2.00 2.00 2.00
   2.00 2.00 2.00 2.00 2.00 2.00 2.00 2.00 2.00 2.00
   2.00 2.00 2.00 2.00 2.00 2.00 2.00 2.00 2.00 2.00
   2.00 2.00 2.00 2.00 2.00 2.00 2.00 2.00 2.00 2.00
   2.00 2.00 2.00 2.00 2.00 2.00 2.00 2.00 2.00 2.00
   2.00 2.00 2.00 2.00 2.00 2.00 2.00 2.00 2.00 2.00
   2.00 2.00 2.00 2.00 2.00 2.00 2.00 2.00 2.00 2.00
   2.00 2.00 2.00 2.00 2.00 2.00 2.00 2.00 2.00 2.00
   2.00 2.00 2.00 2.00 2.00 2.00 2.00 2.00 2.00 2.00
   2.00 2.00 2.00 2.00 2.00 2.00 2.00 2.00 2.00 2.00
   2.00 2.00 2.00 2.00 2.00 2.00 2.00 2.00 2.00 2.00
   2.00 2.00 2.00 2.00 2.00 2.00 2.00 2.00 2.00 2.00
   2.00 2.00 2.00 2.00 2.00 2.00 2.00 2.00 2.00 2.00
   2.00 2.00 2.00 2.00 2.00 2.00 2.00 2.00 2.00 2.00
   2.00 2.00 2.00 2.00 2.00 2.00 2.00 2.00


   Exchange and correlations functionals
   -------------------------------------
     Exchange-correlation=  SLA  PZ   NOGX NOGC
                           (   1   1   0   0   0   0   0)


   Ions Simulation Parameters
   --------------------------
   Ions are allowed to move
   Ions dynamics with newton equations
   the temperature is computed for   864 degrees of freedom
   ion dynamics with fricp =  0.0000 and greasp =  1.0000
   Ionic position (from input)
   sorted by specie, and converted to real a.u. coordinates
   Species   1 atoms =  138 mass =     29166.22 (a.u.),        16.00 (amu) rcmax =   0.50 (a.u.)
       17.686732    17.800724    29.675879
       17.686732    21.779731    25.696872
       21.665740    17.800724    25.696872
       21.665739    21.779731    29.675879
       17.686732    17.800724    21.717864
       17.686732    21.779731    17.738857
       21.665740    17.800724    17.738857
       21.665740    21.779731    21.717864
       17.686732    17.800724    13.759849
       17.686732    21.779732     9.780841
       21.665740    17.800724     9.780841
       21.665740    21.779731    13.759849
       17.686733    17.800725     5.801834
       17.686733    21.779732     1.822826
       21.665741    17.800725     1.822826
       21.665740    21.779732     5.801834
       17.686732     9.842708    29.675879
       17.686732    13.821716    25.696872
       21.665740     9.842709    25.696872
       21.665740    13.821716    29.675879
       17.686732     9.842709    21.717864
       17.686732    13.821716    17.738857
       21.665740     9.842709    17.738857
       21.665740    13.821716    21.717864
       17.686733     9.842709    13.759849
       17.686733    13.821717     9.780841
       21.665741     9.842709     9.780841
       21.665740    13.821716    13.759849
       17.686733     9.842709     5.801834
       17.686733    13.821717     1.822826
       21.665741     9.842710     1.822826
       21.665741    13.821717     5.801834
       17.686732     1.884693    29.675879
       17.686732     5.863701    25.696872
       21.665740     1.884693    25.696872
       21.665740     5.863701    29.675879
       17.686733     1.884694    21.717864
       17.686733     5.863701    17.738857
       21.665741     1.884694    17.738857
       21.665740     5.863701    21.717864
       17.686733     1.884694    13.759849
       17.686733     5.863701     9.780841
       21.665741     1.884694     9.780841
       21.665741     5.863701    13.759849
       17.686733     1.884694     5.801834
       17.686733     5.863702     1.822826
       21.665741     1.884695     1.822826
       21.665741     5.863702     5.801834
        9.728716    17.800724    29.675879
        9.728716    21.779731    25.696872
       13.707725    17.800724    25.696872
       13.707724    21.779731    29.675879
        9.728717    17.800724    21.717864
        9.728717    21.779731    17.738857
       13.707725    17.800724    17.738857
       13.707725    21.779731    21.717864
        9.728717    17.800724    13.759849
        9.728717    21.779732     9.780841
       13.707725    17.800724     9.780841
       13.707725    21.779731    13.759849
        9.728718    17.800725     5.801834
        9.728718    21.779732     1.822826
       13.707726    17.800725     1.822826
       13.707725    21.779732     5.801834
        9.728717     9.842708    29.675879
        9.728717    13.821716    25.696872
       13.707725     9.842709    25.696872
       13.707725    13.821716    29.675879
        9.728717     9.842709    21.717864
        9.728717    13.821716    17.738857
       13.707725     9.842709    17.738857
       13.707725    13.821716    21.717864
        9.728718     9.842709    13.759849
        9.728718    13.821717     9.780841
       13.707726     9.842709     9.780841
       13.707725    13.821716    13.759849
        9.728718     9.842709     5.801834
        9.728718    13.821717     1.822826
       13.707726     9.842710     1.822826
       13.707726    13.821717     5.801834
        9.728717     1.884693    29.675879
        9.728717     5.863701    25.696872
       13.707725     1.884693    25.696872
       13.707725     5.863701    29.675879
        9.728718     1.884694    21.717864
        9.728718     5.863701    17.738857
       13.707726     1.884694    17.738857
       13.707725     5.863701    21.717864
        9.728718     1.884694    13.759849
        9.728718     5.863701     9.780841
       13.707726     1.884694     9.780841
       13.707726     5.863701    13.759849
        9.728718     1.884694     5.801834
        9.728718     5.863702     1.822826
       13.707726     1.884695     1.822826
       13.707726     5.863702     5.801834
        1.770701    17.800724    29.675879
        1.770701    21.779731    25.696872
        5.749709    17.800724    25.696872
        5.749709    21.779731    29.675879
        1.770702    17.800724    21.717864
        1.770702    21.779731    17.738857
        5.749710    17.800724    17.738857
        5.749709    21.779731    21.717864
        1.770702    17.800724    13.759849
        1.770702    21.779732     9.780841
        5.749710    17.800724     9.780841
        5.749710    21.779731    13.759849
        1.770702    17.800725     5.801834
        1.770702    21.779732     1.822826
        5.749711    17.800725     1.822826
        5.749710    21.779732     5.801834
        1.770702     9.842708    29.675879
        1.770702    13.821716    25.696872
        5.749710     9.842709    25.696872
        5.749709    13.821716    29.675879
        1.770702     9.842709    21.717864
        5.749710    13.821716    21.717864
        1.770703     9.842709     5.801834
        1.770703    13.821717     1.822826
        5.749711     9.842710     1.822826
        5.749711    13.821717     5.801834
        1.770702     1.884693    29.675879
        1.770702     5.863701    25.696872
        5.749710     1.884693    25.696872
        5.749710     5.863701    29.675879
        1.770702     1.884694    21.717864
        1.770702     5.863701    17.738857
        5.749711     1.884694    17.738857
        5.749710     5.863701    21.717864
        1.770703     1.884694    13.759849
        1.770703     5.863701     9.780841
        5.749711     1.884694     9.780841
        5.749711     5.863701    13.759849
        1.770703     1.884694     5.801834
        1.770703     5.863702     1.822826
        5.749711     1.884695     1.822826
        5.749711     5.863702     5.801834
   Species   2 atoms =   12 mass =    196689.67 (a.u.),       107.90 (amu) rcmax =   0.50 (a.u.)
        1.770702    13.821716    17.738857
        5.749710     9.842709    17.738857
        5.749710    13.821716    17.738857
        1.770702     9.842709    17.738857
        1.770702     9.842709    13.759849
        1.770702    13.821717     9.780841
        5.749711     9.842709     9.780841
        5.749710    13.821717     9.780841
        5.749710     9.842709    13.759849
        1.770702    13.821717    13.759849
        5.749710    13.821716    13.759849
        1.770703     9.842709     9.780841
   Species   3 atoms =  138 mass =     44296.19 (a.u.),        24.30 (amu) rcmax =   0.50 (a.u.)
       21.665739    21.779731    25.696872
       21.665739    17.800724    29.675879
       17.686731    21.779731    29.675879
       17.686732    17.800724    25.696872
       21.665740    21.779732    17.738857
       21.665740    17.800724    21.717864
       17.686732    21.779731    21.717864
       17.686732    17.800724    17.738857
       21.665740    21.779732     9.780841
       21.665740    17.800724    13.759849
       17.686732    21.779732    13.759849
       17.686732    17.800724     9.780841
       21.665740    21.779732     1.822826
       21.665740    17.800725     5.801834
       17.686732    21.779732     5.801834
       17.686733    17.800725     1.822826
       21.665740    13.821716    25.696872
       21.665740     9.842708    29.675879
       17.686732    13.821716    29.675879
       17.686732     9.842709    25.696872
       21.665740    13.821716    17.738857
       21.665740     9.842709    21.717864
       17.686732    13.821716    21.717864
       17.686732     9.842709    17.738857
       21.665740    13.821717     9.780841
       21.665740     9.842709    13.759849
       17.686732    13.821717    13.759849
       17.686733     9.842709     9.780841
       21.665741    13.821717     1.822826
       21.665741     9.842709     5.801834
       17.686733    13.821717     5.801834
       17.686733     9.842710     1.822826
       21.665740     5.863701    25.696872
       21.665740     1.884693    29.675879
       17.686732     5.863701    29.675879
       17.686732     1.884693    25.696872
       21.665740     5.863701    17.738857
       21.665740     1.884694    21.717864
       17.686732     5.863701    21.717864
       17.686733     1.884694    17.738857
       21.665741     5.863702     9.780841
       21.665741     1.884694    13.759849
       17.686733     5.863702    13.759849
       17.686733     1.884694     9.780841
       21.665741     5.863702     1.822826
       21.665741     1.884694     5.801834
       17.686733     5.863702     5.801834
       17.686734     1.884695     1.822826
       13.707724    21.779731    25.696872
       13.707724    17.800724    29.675879
        9.728716    21.779731    29.675879
        9.728717    17.800724    25.696872
       13.707724    21.779732    17.738857
       13.707724    17.800724    21.717864
        9.728717    21.779731    21.717864
        9.728717    17.800724    17.738857
       13.707725    21.779732     9.780841
       13.707725    17.800724    13.759849
        9.728717    21.779732    13.759849
        9.728717    17.800724     9.780841
       13.707725    21.779732     1.822826
       13.707725    17.800725     5.801834
        9.728717    21.779732     5.801834
        9.728718    17.800725     1.822826
       13.707724    13.821716    25.696872
       13.707724     9.842708    29.675879
        9.728717    13.821716    29.675879
        9.728717     9.842709    25.696872
       13.707725    13.821716    17.738857
       13.707725     9.842709    21.717864
        9.728717    13.821716    21.717864
        9.728717     9.842709    17.738857
       13.707725    13.821717     9.780841
       13.707725     9.842709    13.759849
        9.728717    13.821717    13.759849
        9.728718     9.842709     9.780841
       13.707725    13.821717     1.822826
       13.707725     9.842709     5.801834
        9.728718    13.821717     5.801834
        9.728718     9.842710     1.822826
       13.707725     5.863701    25.696872
       13.707725     1.884693    29.675879
        9.728717     5.863701    29.675879
        9.728717     1.884693    25.696872
       13.707725     5.863701    17.738857
       13.707725     1.884694    21.717864
        9.728717     5.863701    21.717864
        9.728718     1.884694    17.738857
       13.707725     5.863702     9.780841
       13.707725     1.884694    13.759849
        9.728718     5.863702    13.759849
        9.728718     1.884694     9.780841
       13.707726     5.863702     1.822826
       13.707726     1.884694     5.801834
        9.728718     5.863702     5.801834
        9.728718     1.884695     1.822826
        5.749709    21.779731    25.696872
        5.749709    17.800724    29.675879
        1.770701    21.779731    29.675879
        1.770702    17.800724    25.696872
        5.749709    21.779732    17.738857
        5.749709    17.800724    21.717864
        1.770702    21.779731    21.717864
        1.770702    17.800724    17.738857
        5.749710    21.779732     9.780841
        5.749710    17.800724    13.759849
        1.770702    21.779732    13.759849
        1.770702    17.800724     9.780841
        5.749710    21.779732     1.822826
        5.749710    17.800725     5.801834
        1.770702    21.779732     5.801834
        1.770703    17.800725     1.822826
        5.749709    13.821716    25.696872
        5.749709     9.842708    29.675879
        1.770702    13.821716    29.675879
        1.770702     9.842709    25.696872
        5.749710     9.842709    21.717864
        1.770702    13.821716    21.717864
        5.749710    13.821717     1.822826
        5.749710     9.842709     5.801834
        1.770703    13.821717     5.801834
        1.770703     9.842710     1.822826
        5.749710     5.863701    25.696872
        5.749710     1.884693    29.675879
        1.770702     5.863701    29.675879
        1.770702     1.884693    25.696872
        5.749710     5.863701    17.738857
        5.749710     1.884694    21.717864
        1.770702     5.863701    21.717864
        1.770703     1.884694    17.738857
        5.749710     5.863702     9.780841
        5.749710     1.884694    13.759849
        1.770703     5.863702    13.759849
        1.770703     1.884694     9.780841
        5.749711     5.863702     1.822826
        5.749711     1.884694     5.801834
        1.770703     5.863702     5.801834
        1.770703     1.884695     1.822826
   Ionic position will be re-read from restart file

   All atoms are allowed to move
   Ionic temperature is not controlled


   Cell Dynamics Parameters (from STDIN)
   -------------------------------------
   internal stress tensor calculated
   Starting cell generated from CELLDM
   Cell parameters will be re-read from restart file
   Constant VOLUME Molecular dynamics
   cell parameters are not allowed to move

    =====================================
    |  BERRY PHASE ELECTRIC FIELD 1        
    =====================================
    | direction    =         3            
    | intensity    =   0.00100 a.u.     
    =====================================

   Verbosity: iverbosity =  0



   Simulation dimensions initialization
   ------------------------------------

   unit vectors of full simulation cell
   in real space:                         in reciprocal space (units 2pi/alat):
   1    23.8740    0.0000    0.0000              1.0000    0.0000    0.0000
   2     0.0000   23.8740    0.0000              0.0000    1.0000    0.0000
   3     0.0000    0.0000   31.8321              0.0000    0.0000    0.7500
 
     Parallelization info
     --------------------
     sticks:   dense  smooth     PW     G-vecs:    dense   smooth      PW
     Min         112      55     13                15304     5404     658
     Max         114      58     16                15338     5430     686
     Sum       18121    9057   2249              2451395   866495  108199
 
 
   Real Mesh
   ---------
   Global Dimensions   Local  Dimensions   Processor Grid
   .X.   .Y.   .Z.     .X.   .Y.   .Z.     .X.   .Y.   .Z.
   160   160   216     160   160     2       1     1   160
   Array leading dimensions ( nr1x, nr2x, nr3x )   =    160   160   216
   Local number of cell to store the grid ( nrxx ) =      51200
   Number of x-y planes for each processors: 
  | 160,   2  | 160,   2  | 160,   2  | 160,   2  | 160,   2
  | 160,   2  | 160,   2  | 160,   2  | 160,   2  | 160,   2
  | 160,   2  | 160,   2  | 160,   2  | 160,   2  | 160,   2
  | 160,   2  | 160,   2  | 160,   2  | 160,   2  | 160,   2
  | 160,   2  | 160,   2  | 160,   2  | 160,   2  | 160,   2
  | 160,   2  | 160,   2  | 160,   2  | 160,   2  | 160,   2
  | 160,   2  | 160,   2  | 160,   2  | 160,   2  | 160,   2
  | 160,   2  | 160,   2  | 160,   2  | 160,   2  | 160,   2
  | 160,   2  | 160,   2  | 160,   2  | 160,   2  | 160,   2
  | 160,   2  | 160,   2  | 160,   2  | 160,   2  | 160,   2
  | 160,   2  | 160,   2  | 160,   2  | 160,   2  | 160,   2
  | 160,   2  | 160,   1  | 160,   1  | 160,   1  | 160,   1
  | 160,   1  | 160,   1  | 160,   1  | 160,   1  | 160,   1
  | 160,   1  | 160,   1  | 160,   1  | 160,   1  | 160,   1
  | 160,   1  | 160,   1  | 160,   1  | 160,   1  | 160,   1
  | 160,   1  | 160,   1  | 160,   1  | 160,   1  | 160,   1
  | 160,   1  | 160,   1  | 160,   1  | 160,   1  | 160,   1
  | 160,   1  | 160,   1  | 160,   1  | 160,   1  | 160,   1
  | 160,   1  | 160,   1  | 160,   1  | 160,   1  | 160,   1
  | 160,   1  | 160,   1  | 160,   1  | 160,   1  | 160,   1
  | 160,   1  | 160,   1  | 160,   1  | 160,   1  | 160,   1
  | 160,   1  | 160,   1  | 160,   1  | 160,   1  | 160,   1
  | 160,   1  | 160,   1  | 160,   1  | 160,   1  | 160,   1
  | 160,   1  | 160,   1  | 160,   1  | 160,   1  | 160,   1
  | 160,   1  | 160,   1  | 160,   1  | 160,   1  | 160,   1
  | 160,   1  | 160,   1  | 160,   1  | 160,   1  | 160,   1
  | 160,   1  | 160,   1  | 160,   1  | 160,   1  | 160,   1
  | 160,   1  | 160,   1  | 160,   1  | 160,   1  | 160,   1
  | 160,   1  | 160,   1  | 160,   1  | 160,   1  | 160,   1
  | 160,   1  | 160,   1  | 160,   1  | 160,   1  | 160,   1
  | 160,   1  | 160,   1  | 160,   1  | 160,   1  | 160,   1
  | 160,   1  | 160,   1  | 160,   1  | 160,   1  | 160,   1
 
   Smooth Real Mesh
   ----------------
   Global Dimensions   Local  Dimensions   Processor Grid
   .X.   .Y.   .Z.     .X.   .Y.   .Z.     .X.   .Y.   .Z.
   108   108   144     108   108     1       1     1   160
   Array leading dimensions ( nr1x, nr2x, nr3x )   =    108   108   144
   Local number of cell to store the grid ( nrxx ) =      11664
   Number of x-y planes for each processors: 
  | 108,   1  | 108,   1  | 108,   1  | 108,   1  | 108,   1
  | 108,   1  | 108,   1  | 108,   1  | 108,   1  | 108,   1
  | 108,   1  | 108,   1  | 108,   1  | 108,   1  | 108,   1
  | 108,   1  | 108,   1  | 108,   1  | 108,   1  | 108,   1
  | 108,   1  | 108,   1  | 108,   1  | 108,   1  | 108,   1
  | 108,   1  | 108,   1  | 108,   1  | 108,   1  | 108,   1
  | 108,   1  | 108,   1  | 108,   1  | 108,   1  | 108,   1
  | 108,   1  | 108,   1  | 108,   1  | 108,   1  | 108,   1
  | 108,   1  | 108,   1  | 108,   1  | 108,   1  | 108,   1
  | 108,   1  | 108,   1  | 108,   1  | 108,   1  | 108,   1
  | 108,   1  | 108,   1  | 108,   1  | 108,   1  | 108,   1
  | 108,   1  | 108,   1  | 108,   1  | 108,   1  | 108,   1
  | 108,   1  | 108,   1  | 108,   1  | 108,   1  | 108,   1
  | 108,   1  | 108,   1  | 108,   1  | 108,   1  | 108,   1
  | 108,   1  | 108,   1  | 108,   1  | 108,   1  | 108,   1
  | 108,   1  | 108,   1  | 108,   1  | 108,   1  | 108,   1
  | 108,   1  | 108,   1  | 108,   1  | 108,   1  | 108,   1
  | 108,   1  | 108,   1  | 108,   1  | 108,   1  | 108,   1
  | 108,   1  | 108,   1  | 108,   1  | 108,   1  | 108,   1
  | 108,   1  | 108,   1  | 108,   1  | 108,   1  | 108,   1
  | 108,   1  | 108,   1  | 108,   1  | 108,   1  | 108,   1
  | 108,   1  | 108,   1  | 108,   1  | 108,   1  | 108,   1
  | 108,   1  | 108,   1  | 108,   1  | 108,   1  | 108,   1
  | 108,   1  | 108,   1  | 108,   1  | 108,   1  | 108,   1
  | 108,   1  | 108,   1  | 108,   1  | 108,   1  | 108,   1
  | 108,   1  | 108,   1  | 108,   1  | 108,   1  | 108,   1
  | 108,   1  | 108,   1  | 108,   1  | 108,   1  | 108,   1
  | 108,   1  | 108,   1  | 108,   1  | 108,   1  | 108,   1
  | 108,   1  | 108,   1  | 108,   1  | 108,   1  | 108,   0
  | 108,   0  | 108,   0  | 108,   0  | 108,   0  | 108,   0
  | 108,   0  | 108,   0  | 108,   0  | 108,   0  | 108,   0
  | 108,   0  | 108,   0  | 108,   0  | 108,   0  | 108,   0
 
   Small Box Real Mesh
   -------------------
   Global Dimensions   Local  Dimensions   Processor Grid
   .X.   .Y.   .Z.     .X.   .Y.   .Z.     .X.   .Y.   .Z.
    30    30    30      30    30    30       1     1     1
   Array leading dimensions ( nr1x, nr2x, nr3x )   =     30    30    30
   Local number of cell to store the grid ( nrxx ) =      27000
 
   unit vectors of box grid cell
   in real space:                         in reciprocal space:
       4.4764    0.0000    0.0000              1.0000    0.0000    0.0000
       0.0000    4.4764    0.0000              0.0000    1.0000    0.0000
       0.0000    0.0000    4.4211              0.0000    0.0000    1.0125
 
   Reciprocal Space Mesh
   ---------------------
   Large Mesh
     Global(ngm_g)    MinLocal       MaxLocal      Average
        1225698           7652           7669        7660.61
   Smooth Mesh
     Global(ngms_g)   MinLocal       MaxLocal      Average
         433248           2702           2715        2707.80
   Wave function Mesh
     Global(ngw_g)    MinLocal       MaxLocal      Average
          54100            329            343         338.12

   Small box Mesh
   ngb =         5979 not distributed to processors


   System geometry initialization
   ------------------------------
   cell parameters read from restart file
   ibrav =    0       cell parameters 


   cell at current step : h(t)
      24.54239       0.00076       0.00000
       0.00076      24.54229       0.00000
       0.00000       0.00000      32.45460

   cell at previous step : h(t-dt)
      24.54239       0.00076       0.00000
       0.00076      24.54229       0.00000
       0.00000       0.00000      32.45460
 
 
   unit vectors of box grid cell
   in real space:                         in reciprocal space:
       4.6017    0.0001    0.0000              1.0000   -0.0000   -0.0000
       0.0001    4.6017    0.0000             -0.0000    1.0000   -0.0000
       0.0000    0.0000    4.5076             -0.0000   -0.0000    1.0209

   Matrix Multiplication Performances
   ortho mmul, time for parallel driver      =   0.00063 with  144 procs

   Constraints matrixes will be distributed block like on
   ortho sub-group =   12*  12 procs



   Pseudopotentials initialization
   -------------------------------
is, nh(is), ngb, kkbeta, lmaxq =     1    8 5979  761    5
 
                        qqq 
  -0.1545  -0.1232   0.0000   0.0000
  -0.1232  -0.0988   0.0000   0.0000
   0.0000   0.0000   0.1445   0.1161
   0.0000   0.0000   0.1161   0.0931
 
is, nh(is), ngb, kkbeta, lmaxq =     2   13 5979  987    5
 
                        qqq 
  -0.0000   0.0000   0.0000
   0.0000   0.5280  -0.5060
   0.0000  -0.5060   0.4853
 


   Common initialization

   Specie:     1
   1  indv=  1   ang. mom=  0
   2  indv=  2   ang. mom=  0
   3  indv=  3   ang. mom=  1
   4  indv=  3   ang. mom=  1
   5  indv=  3   ang. mom=  1
   6  indv=  4   ang. mom=  1
   7  indv=  4   ang. mom=  1
   8  indv=  4   ang. mom=  1
 
                        dion 
   0.3894   0.2818   0.0000   0.0000
   0.2818   0.2028   0.0000   0.0000
   0.0000   0.0000   0.4711   0.4028
   0.0000   0.0000   0.4028   0.3438

   Specie:     2
   1  indv=  1   ang. mom=  1
   2  indv=  1   ang. mom=  1
   3  indv=  1   ang. mom=  1
   4  indv=  2   ang. mom=  2
   5  indv=  2   ang. mom=  2
   6  indv=  2   ang. mom=  2
   7  indv=  2   ang. mom=  2
   8  indv=  2   ang. mom=  2
   9  indv=  3   ang. mom=  2
  10  indv=  3   ang. mom=  2
  11  indv=  3   ang. mom=  2
  12  indv=  3   ang. mom=  2
  13  indv=  3   ang. mom=  2
 
                        dion 
   0.0116   0.0000   0.0000
   0.0000  -1.4888   1.4112
   0.0000   1.4112  -1.3393

   Specie:     3
   1  indv=  1   ang. mom=  0
 
                        dion 
  10.8855

   Cell parameters from input file are used in electron mass preconditioning
   init_tpiba2=    0.06926403
 
   Short Legend and Physical Units in the Output
   ---------------------------------------------
   NFI    [int]          - step index
   EKINC  [HARTREE A.U.] - kinetic energy of the fictitious electronic dynamics
   TEMPH  [K]            - Temperature of the fictitious cell dynamics
   TEMP   [K]            - Ionic temperature
   ETOT   [HARTREE A.U.] - Scf total energy (Kohn-Sham hamiltonian)
   ENTHAL [HARTREE A.U.] - Enthalpy ( ETOT + P * V )
   ECONS  [HARTREE A.U.] - Enthalpy + kinetic energy of ions and cell
   ECONT  [HARTREE A.U.] - Constant of motion for the CP lagrangian
 
 Electronic velocities set to zero

   formf: eself=  5562.85116
   formf:     vps(g=0)=  -0.0000729     rhops(g=0)=  -0.0003057
   formf:     vps(g=0)=  -0.0000727     rhops(g=0)=  -0.0003050
   formf:     vps(g=0)=  -0.0000727     rhops(g=0)=  -0.0003050
   formf:     vps(g=0)=  -0.0000720     rhops(g=0)=  -0.0003028
   formf:     vps(g=0)=  -0.0000720     rhops(g=0)=  -0.0003028
   formf: sum_g vps(g)=   1.1729686 sum_g rhops(g)=  -4.3101249
   formf:     vps(g=0)=   0.0036178     rhops(g=0)=  -0.0005604
   formf:     vps(g=0)=   0.0035924     rhops(g=0)=  -0.0005591
   formf:     vps(g=0)=   0.0035924     rhops(g=0)=  -0.0005591
   formf:     vps(g=0)=   0.0035171     rhops(g=0)=  -0.0005552
   formf:     vps(g=0)=   0.0035171     rhops(g=0)=  -0.0005552
   formf: sum_g vps(g)=   9.1559870 sum_g rhops(g)=  -7.9018956
   formf:     vps(g=0)=   0.0008190     rhops(g=0)=  -0.0001019
   formf:     vps(g=0)=   0.0008121     rhops(g=0)=  -0.0001017
   formf:     vps(g=0)=   0.0008121     rhops(g=0)=  -0.0001017
   formf:     vps(g=0)=   0.0007914     rhops(g=0)=  -0.0001009
   formf:     vps(g=0)=   0.0007914     rhops(g=0)=  -0.0001009
   formf: sum_g vps(g)=   1.8172172 sum_g rhops(g)=  -1.4367083
   Delta V(G=0):   0.049659Ry,    1.351291eV
Initialize Berry phase electric field
 Additional found:           0
 Additional found:           0
 Additional found:           0
 Additional found:           0
 #not found, gtable:    2249.00000000000     
 #not found, gtabin:    2249.00000000000     
 WARNING setting to ZERO ions, electrons and cell velocities without 
 setting to ZERO all velocities could generate meaningles trajectories 
 
  nfi     ekinc              temph  tempp     etot                 enthal               econs                econt              vnhh    xnhh0   vnhp    xnhp0
    701    0.000000057353011    0.0    0.26   -2898.562429503424   -2898.544734201373   -2898.544385294786   -2898.544385237433   0.0000   0.0000   0.0000   0.0000
Elct. dipole 1   26.683160  Ionic dipole 1   -8.987858
    702    0.000001404339770    0.0    0.25   -2898.562426124544   -2898.544745673265   -2898.544400636464   -2898.544399232124   0.0000   0.0000   0.0000   0.0000
Elct. dipole 1   26.685321  Ionic dipole 1   -9.004870
    703    0.000006800291927    0.0    0.25   -2898.562423717772   -2898.544750853168   -2898.544413800450   -2898.544407000158   0.0000   0.0000   0.0000   0.0000
Elct. dipole 1   26.693937  Ionic dipole 1   -9.021073
    704    0.000015136019616    0.0    0.24   -2898.562427213706   -2898.544752732130   -2898.544423357171   -2898.544408221152   0.0000   0.0000   0.0000   0.0000
Elct. dipole 1   26.710740  Ionic dipole 1   -9.036258
    705    0.000019906146489    0.0    0.24   -2898.562431717241   -2898.544747995714   -2898.544422781024   -2898.544402874878   0.0000   0.0000   0.0000   0.0000
Elct. dipole 1   26.734282  Ionic dipole 1   -9.050560
    706    0.000017634048561    0.0    0.24   -2898.562433551397   -2898.544736711979   -2898.544411058770   -2898.544393424721   0.0000   0.0000   0.0000   0.0000
Elct. dipole 1   26.761253  Ionic dipole 1   -9.064414
    707    0.000011610151402    0.0    0.24   -2898.562433913370   -2898.544723897264   -2898.544394416841   -2898.544382806690   0.0000   0.0000   0.0000   0.0000
Elct. dipole 1   26.788320  Ionic dipole 1   -9.078304
    708    0.000006431147634    0.0    0.24   -2898.562435431096   -2898.544714538086   -2898.544380359069   -2898.544373927922   0.0000   0.0000   0.0000   0.0000
Elct. dipole 1   26.813435  Ionic dipole 1   -9.092542
    709    0.000003836461981    0.0    0.25   -2898.562437142953   -2898.544708188811   -2898.544370945463   -2898.544367109001   0.0000   0.0000   0.0000   0.0000
Elct. dipole 1   26.836115  Ionic dipole 1   -9.107160
    710    0.000003782660599    0.0    0.25   -2898.562438036466   -2898.544703087073   -2898.544365654966   -2898.544361872305   0.0000   0.0000   0.0000   0.0000
Elct. dipole 1   26.856896  Ionic dipole 1   -9.121947
    711    0.000005705936234    0.0    0.25   -2898.562438692775   -2898.544698705062   -2898.544363462128   -2898.544357756192   0.0000   0.0000   0.0000   0.0000
Elct. dipole 1   26.876578  Ionic dipole 1   -9.136590
    712    0.000008326947938    0.0    0.24   -2898.562439778345   -2898.544694938651   -2898.544362644214   -2898.544354317266   0.0000   0.0000   0.0000   0.0000
Elct. dipole 1   26.895679  Ionic dipole 1   -9.150840
    713    0.000010111949284    0.0    0.24   -2898.562441213955   -2898.544691576501   -2898.544361410162   -2898.544351298212   0.0000   0.0000   0.0000   0.0000
Elct. dipole 1   26.914241  Ionic dipole 1   -9.164604
    714    0.000010300025402    0.0    0.24   -2898.562442760922   -2898.544688859879   -2898.544359291208   -2898.544348991183   0.0000   0.0000   0.0000   0.0000
Elct. dipole 1   26.931856  Ionic dipole 1   -9.177955
    715    0.000009170156999    0.0    0.24   -2898.562444220755   -2898.544687432710   -2898.544357184460   -2898.544348014304   0.0000   0.0000   0.0000   0.0000
Elct. dipole 1   26.947850  Ionic dipole 1   -9.191062
    716    0.000007594266714    0.0    0.24   -2898.562445336699   -2898.544687816365   -2898.544356384229   -2898.544348789962   0.0000   0.0000   0.0000   0.0000
Elct. dipole 1   26.961614  Ionic dipole 1   -9.204093
    717    0.000006427836106    0.0    0.24   -2898.562446400669   -2898.544690499911   -2898.544358125046   -2898.544351697210   0.0000   0.0000   0.0000   0.0000
Elct. dipole 1   26.973043  Ionic dipole 1   -9.217142
    718    0.000006030515296    0.0    0.24   -2898.562447447835   -2898.544694763516   -2898.544362062637   -2898.544356032122   0.0000   0.0000   0.0000   0.0000
Elct. dipole 1   26.982893  Ionic dipole 1   -9.230209
    719    0.000006223189405    0.0    0.24   -2898.562448811174   -2898.544699310985   -2898.544366855078   -2898.544360631889   0.0000   0.0000   0.0000   0.0000
Elct. dipole 1   26.992719  Ionic dipole 1   -9.243219
    720    0.000006637199248    0.0    0.24   -2898.562450055892   -2898.544701851774   -2898.544369915045   -2898.544363277846   0.0000   0.0000   0.0000   0.0000
Elct. dipole 1   27.004279  Ionic dipole 1   -9.256075
    721    0.000006997439837    0.0    0.24   -2898.562451202308   -2898.544701280228   -2898.544369833176   -2898.544362835736   0.0000   0.0000   0.0000   0.0000
Elct. dipole 1   27.018623  Ionic dipole 1   -9.268701
    722    0.000007168766156    0.0    0.24   -2898.562452397889   -2898.544698047691   -2898.544366909931   -2898.544359741165   0.0000   0.0000   0.0000   0.0000
Elct. dipole 1   27.035420  Ionic dipole 1   -9.281070
    723    0.000007145437579    0.0    0.24   -2898.562453682739   -2898.544693871650   -2898.544362866633   -2898.544355721196   0.0000   0.0000   0.0000   0.0000
Elct. dipole 1   27.053014  Ionic dipole 1   -9.293203
    724    0.000007017241078    0.0    0.24   -2898.562454895268   -2898.544690771240   -2898.544359785967   -2898.544352768726   0.0000   0.0000   0.0000   0.0000
Elct. dipole 1   27.069275  Ionic dipole 1   -9.305151
    725    0.000006860329246    0.0    0.24   -2898.562456081304   -2898.544690274573   -2898.544359243073   -2898.544352382744   0.0000   0.0000   0.0000   0.0000
Elct. dipole 1   27.082776  Ionic dipole 1   -9.316969
    726    0.000006678480718    0.0    0.24   -2898.562457220504   -2898.544692353174   -2898.544361231443   -2898.544354552963   0.0000   0.0000   0.0000   0.0000
Elct. dipole 1   27.093558  Ionic dipole 1   -9.328690
    727    0.000006476595789    0.0    0.24   -2898.562458494097   -2898.544695789048   -2898.544364556471   -2898.544358079875   0.0000   0.0000   0.0000   0.0000
Elct. dipole 1   27.103022  Ionic dipole 1   -9.340317
    728    0.000006319943043    0.0    0.24   -2898.562459624204   -2898.544698416970   -2898.544367094055   -2898.544360774112   0.0000   0.0000   0.0000   0.0000
Elct. dipole 1   27.113033  Ionic dipole 1   -9.351825
    729    0.000006274282583    0.0    0.24   -2898.562460819174   -2898.544699187266   -2898.544367841942   -2898.544361567660   0.0000   0.0000   0.0000   0.0000
Elct. dipole 1   27.124812  Ionic dipole 1   -9.363180
    730    0.000006332164649    0.0    0.24   -2898.562462066554   -2898.544698099704   -2898.544366823219   -2898.544360491055   0.0000   0.0000   0.0000   0.0000
Elct. dipole 1   27.138323  Ionic dipole 1   -9.374356
    731    0.000006425911490    0.0    0.24   -2898.562463272991   -2898.544696182449   -2898.544365041401   -2898.544358615490   0.0000   0.0000   0.0000   0.0000
Elct. dipole 1   27.152438  Ionic dipole 1   -9.385347
    732    0.000006485920180    0.0    0.24   -2898.562464574642   -2898.544695027946   -2898.544364023422   -2898.544357537502   0.0000   0.0000   0.0000   0.0000
Elct. dipole 1   27.165716  Ionic dipole 1   -9.396170
    733    0.000006477713393    0.0    0.24   -2898.562465988518   -2898.544695594555   -2898.544364659303   -2898.544358181590   0.0000   0.0000   0.0000   0.0000
Elct. dipole 1   27.177245  Ionic dipole 1   -9.406851
    734    0.000006404322588    0.0    0.24   -2898.562467371100   -2898.544697742988   -2898.544366780407   -2898.544360376085   0.0000   0.0000   0.0000   0.0000
Elct. dipole 1   27.187040  Ionic dipole 1   -9.417412
    735    0.000006288460839    0.0    0.24   -2898.562468603593   -2898.544700592451   -2898.544369531510   -2898.544363243049   0.0000   0.0000   0.0000   0.0000
Elct. dipole 1   27.195871  Ionic dipole 1   -9.427860
    736    0.000006162358865    0.0    0.24   -2898.562469688417   -2898.544703170560   -2898.544372001408   -2898.544365839050   0.0000   0.0000   0.0000   0.0000
Elct. dipole 1   27.204702  Ionic dipole 1   -9.438185
    737    0.000006071800393    0.0    0.24   -2898.562470868837   -2898.544705085757   -2898.544373856136   -2898.544367784335   0.0000   0.0000   0.0000   0.0000
Elct. dipole 1   27.214151  Ionic dipole 1   -9.448367
    738    0.000006056431530    0.0    0.24   -2898.562472021709   -2898.544706171812   -2898.544374951507   -2898.544368895075   0.0000   0.0000   0.0000   0.0000
Elct. dipole 1   27.224246  Ionic dipole 1   -9.458396
    739    0.000006104969519    0.0    0.24   -2898.562473171613   -2898.544706894297   -2898.544375733749   -2898.544369628780   0.0000   0.0000   0.0000   0.0000
Elct. dipole 1   27.234547  Ionic dipole 1   -9.468270
    740    0.000006155645805    0.0    0.24   -2898.562474443188   -2898.544707981747   -2898.544376890155   -2898.544370734509   0.0000   0.0000   0.0000   0.0000
Elct. dipole 1   27.244463  Ionic dipole 1   -9.478002
    741    0.000006159864977    0.0    0.24   -2898.562475607539   -2898.544709649925   -2898.544378602265   -2898.544372442400   0.0000   0.0000   0.0000   0.0000
Elct. dipole 1   27.253565  Ionic dipole 1   -9.487608
    742    0.000006124370325    0.0    0.24   -2898.562476792361   -2898.544712139756   -2898.544381103427   -2898.544374979057   0.0000   0.0000   0.0000   0.0000
Elct. dipole 1   27.261750  Ionic dipole 1   -9.497097
    743    0.000006083919143    0.0    0.24   -2898.562477898233   -2898.544715142014   -2898.544384102567   -2898.544378018647   0.0000   0.0000   0.0000   0.0000
Elct. dipole 1   27.269225  Ionic dipole 1   -9.506469
    744    0.000006060424306    0.0    0.24   -2898.562478864668   -2898.544718202862   -2898.544387171520   -2898.544381111095   0.0000   0.0000   0.0000   0.0000
Elct. dipole 1   27.276373  Ionic dipole 1   -9.515711
    745    0.000006055913986    0.0    0.24   -2898.562479899512   -2898.544721139566   -2898.544390140673   -2898.544384084759   0.0000   0.0000   0.0000   0.0000
Elct. dipole 1   27.283573  Ionic dipole 1   -9.524813
    746    0.000006059850692    0.0    0.24   -2898.562480897427   -2898.544723617850   -2898.544392669055   -2898.544386609204   0.0000   0.0000   0.0000   0.0000
Elct. dipole 1   27.291049  Ionic dipole 1   -9.533769
    747    0.000006054865760    0.0    0.24   -2898.562482078713   -2898.544725869550   -2898.544394970173   -2898.544388915307   0.0000   0.0000   0.0000   0.0000
Elct. dipole 1   27.298795  Ionic dipole 1   -9.542586
    748    0.000006029987087    0.0    0.24   -2898.562483282037   -2898.544727960545   -2898.544397095294   -2898.544391065307   0.0000   0.0000   0.0000   0.0000
Elct. dipole 1   27.306599  Ionic dipole 1   -9.551277
    749    0.000005990903205    0.0    0.24   -2898.562484399639   -2898.544730109881   -2898.544399264194   -2898.544393273291   0.0000   0.0000   0.0000   0.0000
Elct. dipole 1   27.314148  Ionic dipole 1   -9.559858
    750    0.000005952329295    0.0    0.24   -2898.562485619899   -2898.544732777276   -2898.544401953146   -2898.544396000816   0.0000   0.0000   0.0000   0.0000
Elct. dipole 1   27.321179  Ionic dipole 1   -9.568336
    751    0.000005927810521    0.0    0.24   -2898.562486711610   -2898.544735827244   -2898.544405048341   -2898.544399120531   0.0000   0.0000   0.0000   0.0000
Elct. dipole 1   27.327593  Ionic dipole 1   -9.576708
    752    0.000005928404440    0.0    0.24   -2898.562487867541   -2898.544739345745   -2898.544408648190   -2898.544402719786   0.0000   0.0000   0.0000   0.0000
Elct. dipole 1   27.333487  Ionic dipole 1   -9.584966
    753    0.000005955615025    0.0    0.24   -2898.562488913939   -2898.544742924834   -2898.544412340139   -2898.544406384524   0.0000   0.0000   0.0000   0.0000
Elct. dipole 1   27.339086  Ionic dipole 1   -9.593097
    754    0.000005990875306    0.0    0.24   -2898.562490018084   -2898.544746500486   -2898.544416042057   -2898.544410051182   0.0000   0.0000   0.0000   0.0000
Elct. dipole 1   27.344615  Ionic dipole 1   -9.601097
    755    0.000006006255998    0.0    0.24   -2898.562491032981   -2898.544749808805   -2898.544419469918   -2898.544413463662   0.0000   0.0000   0.0000   0.0000
Elct. dipole 1   27.350192  Ionic dipole 1   -9.608968
    756    0.000005990276429    0.0    0.24   -2898.562492059446   -2898.544752985338   -2898.544422748573   -2898.544416758297   0.0000   0.0000   0.0000   0.0000
Elct. dipole 1   27.355794  Ionic dipole 1   -9.616720
    757    0.000005954466475    0.0    0.24   -2898.562493156158   -2898.544756230696   -2898.544426082150   -2898.544420127683   0.0000   0.0000   0.0000   0.0000
Elct. dipole 1   27.361290  Ionic dipole 1   -9.624364
    758    0.000005916598521    0.0    0.24   -2898.562494054811   -2898.544759436603   -2898.544429376452   -2898.544423459854   0.0000   0.0000   0.0000   0.0000
Elct. dipole 1   27.366528  Ionic dipole 1   -9.631910
    759    0.000005887737806    0.0    0.24   -2898.562495047780   -2898.544762994177   -2898.544433038523   -2898.544427150786   0.0000   0.0000   0.0000   0.0000
Elct. dipole 1   27.371415  Ionic dipole 1   -9.639361
    760    0.000005873148714    0.0    0.24   -2898.562496131129   -2898.544766902643   -2898.544437077444   -2898.544431204295   0.0000   0.0000   0.0000   0.0000
Elct. dipole 1   27.375944  Ionic dipole 1   -9.646716
    761    0.000005874551490    0.0    0.24   -2898.562497313063   -2898.544771093600   -2898.544441425771   -2898.544435551220   0.0000   0.0000   0.0000   0.0000
Elct. dipole 1   27.380188  Ionic dipole 1   -9.653969
    762    0.000005888507803    0.0    0.24   -2898.562498243254   -2898.544775106937   -2898.544445617959   -2898.544439729451   0.0000   0.0000   0.0000   0.0000
Elct. dipole 1   27.384250  Ionic dipole 1   -9.661114
    763    0.000005906987732    0.0    0.24   -2898.562499275127   -2898.544779203512   -2898.544449907706   -2898.544444000718   0.0000   0.0000   0.0000   0.0000
Elct. dipole 1   27.388220  Ionic dipole 1   -9.668148
    764    0.000005921817677    0.0    0.24   -2898.562500351543   -2898.544783285496   -2898.544454191647   -2898.544448269829   0.0000   0.0000   0.0000   0.0000
Elct. dipole 1   27.392139  Ionic dipole 1   -9.675073
    765    0.000005928441421    0.0    0.24   -2898.562501307891   -2898.544787209299   -2898.544458322807   -2898.544452394366   0.0000   0.0000   0.0000   0.0000
Elct. dipole 1   27.395992  Ionic dipole 1   -9.681894
    766    0.000005925864955    0.0    0.24   -2898.562502198537   -2898.544791096848   -2898.544462420754   -2898.544456494889   0.0000   0.0000   0.0000   0.0000
Elct. dipole 1   27.399718  Ionic dipole 1   -9.688616
    767    0.000005914241740    0.0    0.24   -2898.562503377497   -2898.544795382650   -2898.544466918189   -2898.544461003948   0.0000   0.0000   0.0000   0.0000
Elct. dipole 1   27.403243  Ionic dipole 1   -9.695248
    768    0.000005894205690    0.0    0.24   -2898.562504215663   -2898.544799492927   -2898.544471241393   -2898.544465347187   0.0000   0.0000   0.0000   0.0000
Elct. dipole 1   27.406516  Ionic dipole 1   -9.701793
    769    0.000005869357437    0.0    0.24   -2898.562505122031   -2898.544803842042   -2898.544475808610   -2898.544469939253   0.0000   0.0000   0.0000   0.0000
Elct. dipole 1   27.409534  Ionic dipole 1   -9.708254
    770    0.000005847829221    0.0    0.24   -2898.562505824032   -2898.544808113122   -2898.544480310894   -2898.544474463065   0.0000   0.0000   0.0000   0.0000
Elct. dipole 1   27.412342  Ionic dipole 1   -9.714631
    771    0.000005838939682    0.0    0.24   -2898.562506782202   -2898.544812700399   -2898.544485151576   -2898.544479312636   0.0000   0.0000   0.0000   0.0000
Elct. dipole 1   27.415002  Ionic dipole 1   -9.720920
    772    0.000005846921601    0.0    0.24   -2898.562507652628   -2898.544817209967   -2898.544489942194   -2898.544484095272   0.0000   0.0000   0.0000   0.0000
Elct. dipole 1   27.417563  Ionic dipole 1   -9.727120
    773    0.000005867391008    0.0    0.24   -2898.562508512106   -2898.544821711008   -2898.544494749941   -2898.544488882550   0.0000   0.0000   0.0000   0.0000
Elct. dipole 1   27.420031  Ionic dipole 1   -9.733230
    774    0.000005889477913    0.0    0.24   -2898.562509386185   -2898.544826262440   -2898.544499624379   -2898.544493734901   0.0000   0.0000   0.0000   0.0000
Elct. dipole 1   27.422375  Ionic dipole 1   -9.739251
    775    0.000005901568003    0.0    0.24   -2898.562510410531   -2898.544831047126   -2898.544504736112   -2898.544498834544   0.0000   0.0000   0.0000   0.0000
Elct. dipole 1   27.424551  Ionic dipole 1   -9.745188
    776    0.000005896946102    0.0    0.24   -2898.562511234141   -2898.544835741530   -2898.544509752993   -2898.544503856047   0.0000   0.0000   0.0000   0.0000
Elct. dipole 1   27.426537  Ionic dipole 1   -9.751044
    777    0.000005877062164    0.0    0.24   -2898.562512181520   -2898.544840660336   -2898.544514989519   -2898.544509112457   0.0000   0.0000   0.0000   0.0000
Elct. dipole 1   27.428346  Ionic dipole 1   -9.756825
    778    0.000005851094630    0.0    0.24   -2898.562513062355   -2898.544845574867   -2898.544520225249   -2898.544514374155   0.0000   0.0000   0.0000   0.0000
Elct. dipole 1   27.430021  Ionic dipole 1   -9.762534
    779    0.000005831131008    0.0    0.24   -2898.562513821174   -2898.544850389482   -2898.544525376434   -2898.544519545303   0.0000   0.0000   0.0000   0.0000
Elct. dipole 1   27.431604  Ionic dipole 1   -9.768172
    780    0.000005825196233    0.0    0.24   -2898.562514512178   -2898.544855141475   -2898.544530489275   -2898.544524664079   0.0000   0.0000   0.0000   0.0000
Elct. dipole 1   27.433110  Ionic dipole 1   -9.773740
    781    0.000005833009899    0.0    0.24   -2898.562515352527   -2898.544860061326   -2898.544535795555   -2898.544529962546   0.0000   0.0000   0.0000   0.0000
Elct. dipole 1   27.434527  Ionic dipole 1   -9.779236
    782    0.000005847213462    0.0    0.24   -2898.562516154526   -2898.544864991550   -2898.544541131510   -2898.544535284296   0.0000   0.0000   0.0000   0.0000
Elct. dipole 1   27.435823  Ionic dipole 1   -9.784660
    783    0.000005858301207    0.0    0.24   -2898.562516946682   -2898.544869985749   -2898.544546541145   -2898.544540682843   0.0000   0.0000   0.0000   0.0000
Elct. dipole 1   27.436975  Ionic dipole 1   -9.790014
    784    0.000005859862817    0.0    0.24   -2898.562517729243   -2898.544875049162   -2898.544552022382   -2898.544546162519   0.0000   0.0000   0.0000   0.0000
Elct. dipole 1   27.437980  Ionic dipole 1   -9.795300
    785    0.000005851533137    0.0    0.24   -2898.562518230305   -2898.544879895196   -2898.544557287119   -2898.544551435586   0.0000   0.0000   0.0000   0.0000
Elct. dipole 1   27.438856  Ionic dipole 1   -9.800520
    786    0.000005838223334    0.0    0.24   -2898.562518989733   -2898.544885041649   -2898.544562857142   -2898.544557018919   0.0000   0.0000   0.0000   0.0000
Elct. dipole 1   27.439627  Ionic dipole 1   -9.805679
    787    0.000005826307907    0.0    0.24   -2898.562519601394   -2898.544890066652   -2898.544568316659   -2898.544562490351   0.0000   0.0000   0.0000   0.0000
Elct. dipole 1   27.440312  Ionic dipole 1   -9.810777
    788    0.000005819636683    0.0    0.23   -2898.562520363099   -2898.544895264788   -2898.544573964451   -2898.544568144814   0.0000   0.0000   0.0000   0.0000
Elct. dipole 1   27.440916  Ionic dipole 1   -9.815818
    789    0.000005818012174    0.0    0.23   -2898.562521059563   -2898.544900426804   -2898.544579591527   -2898.544573773515   0.0000   0.0000   0.0000   0.0000
Elct. dipole 1   27.441435  Ionic dipole 1   -9.820803
    790    0.000005818405556    0.0    0.23   -2898.562521825736   -2898.544905695203   -2898.544585337464   -2898.544579519058   0.0000   0.0000   0.0000   0.0000
Elct. dipole 1   27.441863  Ionic dipole 1   -9.825732
    791    0.000005817528740    0.0    0.23   -2898.562522583809   -2898.544910995648   -2898.544591124394   -2898.544585306865   0.0000   0.0000   0.0000   0.0000
Elct. dipole 1   27.442196  Ionic dipole 1   -9.830608
    792    0.000005814025521    0.0    0.23   -2898.562523168295   -2898.544916161620   -2898.544596783966   -2898.544590969941   0.0000   0.0000   0.0000   0.0000
Elct. dipole 1   27.442437  Ionic dipole 1   -9.835430
    793    0.000005808878520    0.0    0.23   -2898.562523823908   -2898.544921435154   -2898.544602558643   -2898.544596749764   0.0000   0.0000   0.0000   0.0000
Elct. dipole 1   27.442589  Ionic dipole 1   -9.840201
    794    0.000005803919821    0.0    0.23   -2898.562524520414   -2898.544926784368   -2898.544608418041   -2898.544602614121   0.0000   0.0000   0.0000   0.0000
Elct. dipole 1   27.442657  Ionic dipole 1   -9.844921
    795    0.000005799962891    0.0    0.23   -2898.562525079220   -2898.544932029975   -2898.544614183666   -2898.544608383704   0.0000   0.0000   0.0000   0.0000
Elct. dipole 1   27.442642  Ionic dipole 1   -9.849593
    796    0.000005796230050    0.0    0.23   -2898.562525651872   -2898.544937321780   -2898.544620004471   -2898.544614208241   0.0000   0.0000   0.0000   0.0000
Elct. dipole 1   27.442549  Ionic dipole 1   -9.854219
    797    0.000005791172076    0.0    0.23   -2898.562526243621   -2898.544942660124   -2898.544625878871   -2898.544620087699   0.0000   0.0000   0.0000   0.0000
Elct. dipole 1   27.442385  Ionic dipole 1   -9.858802
    798    0.000005783796626    0.0    0.23   -2898.562526928696   -2898.544948111526   -2898.544631871889   -2898.544626088093   0.0000   0.0000   0.0000   0.0000
Elct. dipole 1   27.442160  Ionic dipole 1   -9.863343
    799    0.000005774691269    0.0    0.23   -2898.562527611034   -2898.544953572506   -2898.544637880185   -2898.544632105494   0.0000   0.0000   0.0000   0.0000
Elct. dipole 1   27.441884  Ionic dipole 1   -9.867845

 * Physical Quantities at step:   800

   from rhoofr: total integrated electronic density
   in g-space =   1236.000000   in r-space =  1236.000000
     Total Electronic Pressure (GPa)       41.05037    800
     Pressure of Nuclei (GPa)             0.00032    800
     Pressure Total (GPa)             0.05122    800


                total energy =    -2898.56252814711 Hartree a.u.
              kinetic energy =     1316.43548 Hartree a.u.
        electrostatic energy =    -3924.26731 Hartree a.u.
                         esr =        0.00000 Hartree a.u.
                       eself =     5562.85116 Hartree a.u.
      pseudopotential energy =      261.76838 Hartree a.u.
  n-l pseudopotential energy =      193.28665 Hartree a.u.
 exchange-correlation energy =     -745.76817 Hartree a.u.
           average potential =        0.00000 Hartree a.u.



   Eigenvalues (eV), kp =   1 , spin =  1

  -12.75  -12.59  -12.51  -12.50  -12.40  -12.39  -12.39  -12.30  -12.27  -12.27
  -12.26  -12.25  -12.20  -12.19  -12.18  -12.15  -12.14  -12.10  -12.09  -12.06
  -12.04  -12.04  -12.01  -11.97  -11.97  -11.97  -11.96  -11.93  -11.89  -11.84
  -11.83  -11.83  -11.80  -11.79  -11.79  -11.77  -11.74  -11.74  -11.73  -11.70
  -11.69  -11.69  -11.68  -11.68  -11.67  -11.67  -11.66  -11.65  -11.65  -11.63
  -11.62  -11.60  -11.59  -11.58  -11.58  -11.57  -11.56  -11.56  -11.56  -11.55
  -11.55  -11.54  -11.54  -11.53  -11.53  -11.51  -11.51  -11.51  -11.51  -11.51
  -11.50  -11.50  -11.50  -11.48  -11.48  -11.48  -11.47  -11.47  -11.45  -11.45
  -11.45  -11.44  -11.44  -11.43  -11.42  -11.42  -11.41  -11.41  -11.40  -11.40
  -11.40  -11.40  -11.39  -11.39  -11.38  -11.38  -11.38  -11.38  -11.37  -11.37
  -11.36  -11.36  -11.36  -11.35  -11.35  -11.34  -11.34  -11.34  -11.32  -11.28
  -11.27  -11.27  -11.26  -11.25  -11.25  -11.25  -11.25  -11.25  -11.24  -11.24
  -11.22  -11.22  -11.22  -11.21  -11.21  -11.18  -11.18  -11.16  -11.15  -11.15
  -11.15  -11.14  -11.13  -11.12  -11.12  -11.12  -11.12  -11.05   -1.25   -0.86
   -0.81   -0.77   -0.73   -0.72   -0.65   -0.58   -0.55   -0.54   -0.52   -0.47
   -0.38   -0.35   -0.33   -0.32   -0.27   -0.26   -0.23   -0.21   -0.20   -0.19
   -0.16   -0.15   -0.15   -0.14   -0.14   -0.12   -0.09   -0.07   -0.07   -0.06
   -0.06   -0.05   -0.04   -0.03   -0.02    0.00    0.01    0.02    0.03    0.04
    0.05    0.06    0.08    0.08    0.08    0.11    0.11    0.11    0.12    0.12
    0.13    0.14    0.14    0.16    0.17    0.18    0.20    0.21    0.23    0.24
    0.24    0.24    0.25    0.27    0.28    0.31    0.32    0.37    0.37    0.38
    0.38    0.39    0.40    0.40    0.42    0.43    0.44    0.45    0.45    0.47
    0.47    0.48    0.50    0.50    0.50    0.53    0.53    0.53    0.53    0.53
    0.54    0.56    0.56    0.57    0.57    0.57    0.58    0.59    0.60    0.60
    0.61    0.62    0.62    0.63    0.63    0.64    0.65    0.65    0.66    0.66
    0.67    0.68    0.69    0.71    0.72    0.73    0.74    0.74    0.75    0.76
    0.77    0.78    0.79    0.79    0.80    0.81    0.81    0.81    0.84    0.87
    0.88    0.89    0.90    0.90    0.92    0.92    0.93    0.94    0.94    0.96
    0.97    0.98    0.99    1.03    1.04    1.06    1.08    1.09    1.10    1.11
    1.13    1.14    1.14    1.16    1.17    1.20    1.23    1.26    1.26    1.31
    1.32    1.32    1.35    1.36    1.38    1.46    1.47    1.48    1.48    1.50
    1.52    1.53    1.54    1.55    1.57    1.58    1.58    1.59    1.62    1.63
    1.66    1.66    1.68    1.69    1.73    1.74    1.76    1.76    1.78    1.79
    1.79    1.79    1.81    1.84    1.84    1.85    1.86    1.88    1.88    1.89
    1.90    1.92    1.93    1.97    1.97    1.98    1.99    2.01    2.05    2.07
    2.11    2.13    2.13    2.14    2.17    2.17    2.18    2.18    2.20    2.20
    2.22    2.22    2.22    2.23    2.24    2.27    2.27    2.27    2.28    2.33
    2.34    2.35    2.36    2.36    2.37    2.37    2.38    2.40    2.42    2.42
    2.42    2.44    2.45    2.45    2.45    2.45    2.48    2.48    2.50    2.51
    2.51    2.51    2.53    2.53    2.54    2.54    2.54    2.55    2.56    2.56
    2.57    2.57    2.59    2.61    2.62    2.62    2.62    2.62    2.64    2.65
    2.66    2.66    2.66    2.66    2.67    2.67    2.68    2.69    2.69    2.70
    2.70    2.71    2.73    2.73    2.74    2.76    2.76    2.77    2.78    2.78
    2.80    2.80    2.82    2.82    2.83    2.85    2.85    2.87    2.87    2.89
    2.90    2.91    2.91    2.91    2.93    2.94    2.94    2.95    2.96    2.97
    2.99    2.99    3.00    3.00    3.01    3.01    3.01    3.02    3.02    3.04
    3.04    3.05    3.05    3.07    3.07    3.08    3.08    3.09    3.10    3.10
    3.10    3.10    3.11    3.12    3.12    3.13    3.13    3.15    3.15    3.15
    3.17    3.18    3.18    3.19    3.19    3.19    3.19    3.20    3.21    3.21
    3.23    3.23    3.23    3.23    3.24    3.24    3.26    3.26    3.27    3.27
    3.27    3.28    3.28    3.29    3.29    3.29    3.30    3.31    3.31    3.32
    3.32    3.33    3.34    3.34    3.34    3.35    3.36    3.37    3.38    3.38
    3.39    3.40    3.41    3.41    3.41    3.43    3.44    3.44    3.44    3.46
    3.46    3.47    3.47    3.48    3.48    3.49    3.49    3.50    3.51    3.51
    3.52    3.53    3.53    3.53    3.54    3.55    3.56    3.57    3.58    3.58
    3.58    3.59    3.60    3.61    3.62    3.62    3.63    3.64    3.65    3.65
    3.65    3.65    3.65    3.66    3.67    3.68    3.68    3.69    3.72    3.72
    3.73    3.74    3.75    3.76    3.76    3.79    3.79    3.79    3.80    3.81
    3.84    3.84    3.85    3.86    3.87    3.87    3.89    3.90    3.91    3.92
    3.92    3.92    3.93    3.93    3.94    3.97    3.98    3.98    4.00    4.04
    4.04    4.05    4.16    4.18    4.19    4.37    4.39    4.41    4.45    4.50
    4.52    4.59    4.59    4.79    6.04    6.05    6.25    6.66
 
 
   CELL_PARAMETERS
   24.54239043    0.00076274    0.00000017
    0.00076273   24.54229147    0.00000114
    0.00000023    0.00000151   32.45460242

   System Density [g/cm^3] :              3.9303362633


   System Volume [A.U.^3] :          19548.2670367029


   Center of mass square displacement (a.u.):   0.000000

   Total stress (GPa)
        0.00269042         0.02468101         0.00012614
        0.02468101         0.00265949         0.00008537
        0.00012614         0.00008537         0.14830538
   ATOMIC_POSITIONS
   Ag      0.21310340270881E+01     0.13898218868029E+02     0.18254687844348E+02
   Ag      0.56002069672388E+01     0.10428623942324E+02     0.18254678850390E+02
   Ag      0.67345707390772E+01     0.15031990943218E+02     0.18636861541764E+02
   Ag      0.99663615260604E+00     0.92947370423274E+01     0.18636507963410E+02
   Ag      0.21516933698959E+01     0.10449579223321E+02     0.14051812632807E+02
   Ag      0.21303449470294E+01     0.13898813966838E+02     0.98642878942741E+01
   Ag      0.56007017158604E+01     0.10427912916257E+02     0.98642733813630E+01
   Ag      0.67262019883271E+01     0.15023612823788E+02     0.94612026205533E+01
   Ag      0.69455563641473E+01     0.90848057331947E+01     0.14064225089347E+02
   Ag      0.78706444953564E+00     0.15243434646979E+02     0.14064246455920E+02
   Ag      0.55805529469848E+01     0.13878250311337E+02     0.14051708774668E+02
   Ag      0.10047675656926E+01     0.93030505450469E+01     0.94618577640700E+01
   Mg      0.22238687685817E+02     0.22395556731409E+02     0.26246256248765E+02
   Mg      0.22238324844226E+02     0.18333812438465E+02     0.30271678485153E+02
   Mg      0.18172494820616E+02     0.22399816421124E+02     0.30270498285264E+02
   Mg      0.18176862970561E+02     0.18333574605781E+02     0.26246303849209E+02
   Mg      0.22171093324429E+02     0.22441945335254E+02     0.18176773975270E+02
   Mg      0.22276783632755E+02     0.18295718920531E+02     0.22191582100425E+02
   Mg      0.18172922754724E+02     0.22399853074450E+02     0.22234297469977E+02
   Mg      0.18130791774936E+02     0.18402215162066E+02     0.18176831010126E+02
   Mg      0.22167593906662E+02     0.22436981882168E+02     0.99060424225932E+01
   Mg      0.21965872778142E+02     0.18606452103546E+02     0.14035436705536E+02
   Mg      0.18113349837338E+02     0.22459878363114E+02     0.14048514645728E+02
   Mg      0.18135668745070E+02     0.18405555686084E+02     0.99060063657363E+01
   Mg      0.22241218454721E+02     0.22391948244120E+02     0.18337736834548E+01
   Mg      0.22275113342712E+02     0.18297308845287E+02     0.58891296067043E+01
   Mg      0.18175597841714E+02     0.22397080221056E+02     0.58536863607189E+01
   Mg      0.18180435080823E+02     0.18330987402669E+02     0.18337445350958E+01
   Mg      0.22185876079195E+02     0.14235868462635E+02     0.26322229583054E+02
   Mg      0.22176862396621E+02     0.10095851268792E+02     0.30267365554180E+02
   Mg      0.18156236610496E+02     0.14230758124202E+02     0.30266768512596E+02
   Mg      0.18142905811723E+02     0.10093305653815E+02     0.26283197959389E+02
   Mg      0.21814536254171E+02     0.14183208968810E+02     0.18109999813894E+02
   Mg      0.22139843430823E+02     0.10143188994577E+02     0.22324769013157E+02
   Mg      0.18138429345171E+02     0.14235993484764E+02     0.22279510011277E+02
   Mg      0.17981595288207E+02     0.10015909747380E+02     0.18217884311111E+02
   Mg      0.21826030937338E+02     0.14182633279368E+02     0.99478740304622E+01
   Mg      0.21786579916284E+02     0.10130778957066E+02     0.14019685096131E+02
   Mg      0.17916641778995E+02     0.14327733253634E+02     0.14031071414162E+02
   Mg      0.17970791168201E+02     0.10016814061830E+02     0.98472676748813E+01
   Mg      0.22183278297073E+02     0.14229360453799E+02     0.17633086025961E+01
   Mg      0.22159672760126E+02     0.10139379611800E+02     0.57635453437978E+01
   Mg      0.18146124699725E+02     0.14230829570497E+02     0.57813384227634E+01
   Mg      0.18150533161928E+02     0.10095490558370E+02     0.18003906049912E+01
   Mg      0.22239662449998E+02     0.59957623947227E+01     0.26261076704248E+02
   Mg      0.22238697335638E+02     0.19214563488412E+01     0.30267273483377E+02
   Mg      0.18165417958702E+02     0.59947929363353E+01     0.30267281400519E+02
   Mg      0.18171402779163E+02     0.19274189592630E+01     0.26251081267207E+02
   Mg      0.22074436077448E+02     0.58305934993442E+01     0.18107592475506E+02
   Mg      0.22235680220861E+02     0.19157229664254E+01     0.22229467583938E+02
   Mg      0.18159571445664E+02     0.59917578327537E+01     0.22229481794806E+02
   Mg      0.18135643155208E+02     0.18917235790567E+01     0.18172200399099E+02
   Mg      0.22073535692029E+02     0.58297083382602E+01     0.99593863178918E+01
   Mg      0.22163888108991E+02     0.18870488048524E+01     0.14038205199222E+02
   Mg      0.18130950250786E+02     0.59198960897478E+01     0.14038192510833E+02
   Mg      0.18135599035102E+02     0.18916818217655E+01     0.99162954440063E+01
   Mg      0.22238516738309E+02     0.59945476352887E+01     0.18295138435742E+01
   Mg      0.22238238534375E+02     0.19154759375715E+01     0.58487501729315E+01
   Mg      0.18159323976610E+02     0.59942715656514E+01     0.58487478242117E+01
   Mg      0.18167949163383E+02     0.19239789653533E+01     0.18345190398239E+01
   Mg      0.14102757838684E+02     0.22400252292753E+02     0.26251118138868E+02
   Mg      0.14108600320903E+02     0.18332660223312E+02     0.30267306821494E+02
   Mg      0.10035157722963E+02     0.22406117426766E+02     0.30267289919489E+02
   Mg      0.10034262352852E+02     0.18331818296506E+02     0.26261197987618E+02
   Mg      0.14139066240368E+02     0.22436680218107E+02     0.18172280255846E+02
   Mg      0.14114742848971E+02     0.18336242841847E+02     0.22229606191597E+02
   Mg      0.10038679068932E+02     0.22412270816488E+02     0.22229619861438E+02
   Mg      0.10199865426051E+02     0.18497427669607E+02     0.18107951464632E+02
   Mg      0.14138951836077E+02     0.22436599010068E+02     0.99162434169988E+01
   Mg      0.14143482337297E+02     0.18408636438561E+02     0.14038201710865E+02
   Mg      0.10111022631571E+02     0.22441135273692E+02     0.14038221552011E+02
   Mg      0.10200568757365E+02     0.18498177394647E+02     0.99591297487277E+01
   Mg      0.14106139753632E+02     0.22403643076940E+02     0.18344781569195E+01
   Mg      0.14114816160361E+02     0.18333551560722E+02     0.58486481948047E+01
   Mg      0.10035943557097E+02     0.22412360075723E+02     0.58486223487449E+01
   Mg      0.10035320026533E+02     0.18332905229528E+02     0.18293960665487E+01
   Mg      0.14131086951999E+02     0.14234074692058E+02     0.26283247421691E+02
   Mg      0.14117660940543E+02     0.10096403168577E+02     0.30266766322133E+02
   Mg      0.10096811902615E+02     0.14231292003221E+02     0.30267360576543E+02
   Mg      0.10087906915983E+02     0.10091491733181E+02     0.26322229970807E+02
   Mg      0.14292600461854E+02     0.14312489698811E+02     0.18217867790288E+02
   Mg      0.14135673084349E+02     0.10091834442649E+02     0.22279513066535E+02
   Mg      0.10134231707967E+02     0.14184638662396E+02     0.22324844925698E+02
   Mg      0.10459420644098E+02     0.10145518370565E+02     0.18110033352007E+02
   Mg      0.14303055328156E+02     0.14311401776214E+02     0.98472727001464E+01
   Mg      0.14357758366150E+02     0.10000864665394E+02     0.14031123025015E+02
   Mg      0.10487845058501E+02     0.14198050468489E+02     0.14019769174640E+02
   Mg      0.10447708583136E+02     0.10145805497414E+02     0.99479773471570E+01
   Mg      0.14123363432797E+02     0.14231788513543E+02     0.18003384529377E+01
   Mg      0.14127733255557E+02     0.10096818583387E+02     0.57812992978026E+01
   Mg      0.10114181844883E+02     0.14188160227457E+02     0.57634109147780E+01
   Mg      0.10090387148664E+02     0.10097889975702E+02     0.17633203145203E+01
   Mg      0.14097221401436E+02     0.59940218324806E+01     0.26246276690763E+02
   Mg      0.14101560263865E+02     0.19277444701437E+01     0.30270495459317E+02
   Mg      0.10035457729201E+02     0.59936157624848E+01     0.30271674206553E+02
   Mg      0.10035292687134E+02     0.19321086202991E+01     0.26246307848571E+02
   Mg      0.14143445377376E+02     0.59263232021786E+01     0.18176778632267E+02
   Mg      0.14101511151827E+02     0.19281793525270E+01     0.22234301283351E+02
   Mg      0.99973371630996E+01     0.60320507909452E+01     0.22191624508638E+02
   Mg      0.10103763061756E+02     0.18860472510708E+01     0.18176843117357E+02
   Mg      0.14138427971388E+02     0.59227964917827E+01     0.99060432480020E+01
   Mg      0.14161430582410E+02     0.18686589290095E+01     0.14048517220491E+02
   Mg      0.10308049382913E+02     0.57213154627977E+01     0.14035439266589E+02
   Mg      0.10107048969337E+02     0.18909125192234E+01     0.99059959794990E+01
   Mg      0.14093563594769E+02     0.59965283325785E+01     0.18337509756651E+01
   Mg      0.14098688751377E+02     0.19308449872658E+01     0.58536699793621E+01
   Mg      0.99988544019849E+01     0.60303447600143E+01     0.58890839754654E+01
   Mg      0.10032686657400E+02     0.19356718011690E+01     0.18337107825716E+01
   Mg      0.59364799573201E+01     0.22428687700041E+02     0.26283221836314E+02
   Mg      0.59336605471015E+01     0.18394495421913E+02     0.30267339166668E+02
   Mg      0.17986681658012E+01     0.22415312683285E+02     0.30266752071474E+02
   Mg      0.17938132847996E+01     0.18385568935337E+02     0.26322212414530E+02
   Mg      0.60148784356667E+01     0.22590145743985E+02     0.18217864553573E+02
   Mg      0.58870187525158E+01     0.18431808865825E+02     0.22324803161947E+02
   Mg      0.17941360161795E+01     0.22433370694565E+02     0.22279493999282E+02
   Mg      0.18479705529867E+01     0.18757226602579E+02     0.18110021581153E+02
   Mg      0.60137639553575E+01     0.22600625314241E+02     0.98473009370133E+01
   Mg      0.59007247017522E+01     0.18785480211308E+02     0.14019811808475E+02
   Mg      0.17031814800900E+01     0.22655391223072E+02     0.14031142276227E+02
   Mg      0.18482802594111E+01     0.18745596316527E+02     0.99479934051169E+01
   Mg      0.59341666643288E+01     0.22420988989934E+02     0.18003199909029E+01
   Mg      0.58904860708390E+01     0.18411792049503E+02     0.57634204310236E+01
   Mg      0.17991198235816E+01     0.22425513237462E+02     0.57813166112455E+01
   Mg      0.18002026536444E+01     0.18388117060000E+02     0.17633396660139E+01
   Mg      0.59979017314456E+01     0.14295569740472E+02     0.26468767016191E+02
   Mg      0.59687122590405E+01     0.10059957614352E+02     0.30267105376490E+02
   Mg      0.17623510035586E+01     0.14266386669276E+02     0.30267114859116E+02
   Mg      0.17332565192546E+01     0.10030911361589E+02     0.26468703646051E+02
   Mg      0.59067929701814E+01     0.10122314165908E+02     0.22780746894079E+02
   Mg      0.18246277966519E+01     0.14204372283329E+02     0.22780755689513E+02
   Mg      0.59941566383177E+01     0.14291889301500E+02     0.15952973722312E+01
   Mg      0.58976612331181E+01     0.10131301952053E+02     0.53256321170185E+01
   Mg      0.18335993169391E+01     0.14195211166226E+02     0.53256334125984E+01
   Mg      0.17369255920794E+01     0.10034500463003E+02     0.15954011068847E+01
   Mg      0.59374657003604E+01     0.59411299084252E+01     0.26322220712761E+02
   Mg      0.59323956617957E+01     0.19114862131178E+01     0.30266742624484E+02
   Mg      0.17973927173801E+01     0.59321094671017E+01     0.30267336654229E+02
   Mg      0.17948039789210E+01     0.18982348306294E+01     0.26283159729435E+02
   Mg      0.58848049874031E+01     0.55698531799929E+01     0.18110017737091E+02
   Mg      0.59375956872070E+01     0.18937229270138E+01     0.22279512375749E+02
   Mg      0.18447101897059E+01     0.58953160822937E+01     0.22324694059557E+02
   Mg      0.17175326687544E+01     0.17371449691976E+01     0.18217877637841E+02
   Mg      0.58842360711163E+01     0.55813276946931E+01     0.99478765188103E+01
   Mg      0.60292929237403E+01     0.16719787561483E+01     0.14031099335781E+02
   Mg      0.18322673711767E+01     0.55420146685944E+01     0.14019726007209E+02
   Mg      0.17184464722911E+01     0.17263945732820E+01     0.98472704664241E+01
   Mg      0.59309589981517E+01     0.59384807390638E+01     0.17633000644116E+01
   Mg      0.59324109403922E+01     0.19013919088311E+01     0.57813111034148E+01
   Mg      0.18409681212978E+01     0.59151452385683E+01     0.57636192260743E+01
   Mg      0.17970005321903E+01     0.19058803102157E+01     0.18003991926938E+01
   O       0.18172322433613E+02     0.18326925459907E+02     0.30221243959394E+02
   O       0.18173096225373E+02     0.22399257874919E+02     0.26209865468693E+02
   O       0.22254801897877E+02     0.18317548486803E+02     0.26206217552433E+02
   O       0.22245133864751E+02     0.22399929642141E+02     0.30221229466517E+02
   O       0.18180221885948E+02     0.18331427616562E+02     0.22182869437230E+02
   O       0.18149747841973E+02     0.22423722505527E+02     0.18121149124438E+02
   O       0.22178009093892E+02     0.18394626756789E+02     0.18066393678337E+02
   O       0.22241325308908E+02     0.22392347505262E+02     0.22182694662502E+02
   O       0.18086204784535E+02     0.18445700088197E+02     0.14004835585837E+02
   O       0.18149330813495E+02     0.22424008488206E+02     0.98916762644096E+01
   O       0.22171156755508E+02     0.18401583140505E+02     0.99407540335625E+01
   O       0.22128153319236E+02     0.22486281725905E+02     0.14004878498352E+02
   O       0.18178594877199E+02     0.18336762069664E+02     0.58202872429046E+01
   O       0.18173007653988E+02     0.22399325351971E+02     0.17905336402755E+01
   O       0.22247117531172E+02     0.18325079491740E+02     0.17810225374060E+01
   O       0.22235761594147E+02     0.22393926466154E+02     0.58204372030927E+01
   O       0.18143999263070E+02     0.10099876472939E+02     0.30226271041937E+02
   O       0.18165983748409E+02     0.14227492378632E+02     0.26235526481034E+02
   O       0.22188806070622E+02     0.10104452641052E+02     0.26279430042258E+02
   O       0.22200696602349E+02     0.14225337727858E+02     0.30235478936017E+02
   O       0.18132206542838E+02     0.10098341124752E+02     0.22254044576659E+02
   O       0.18041269711304E+02     0.14315501819368E+02     0.18199179377242E+02
   O       0.21642533448261E+02     0.10152495937922E+02     0.18059476794532E+02
   O       0.22210200879790E+02     0.14212289854416E+02     0.22231888058631E+02
   O       0.18022912967046E+02     0.99829659646750E+01     0.13991278404903E+02
   O       0.18050373237110E+02     0.14314848536771E+02     0.97943156415556E+01
   O       0.21625923046156E+02     0.10138424530811E+02     0.98991049157094E+01
   O       0.21502620823369E+02     0.14117618350788E+02     0.13986295228535E+02
   O       0.18123484105101E+02     0.10093346021567E+02     0.57450990632747E+01
   O       0.18157878097848E+02     0.14229744492022E+02     0.17580245863928E+01
   O       0.22180476084599E+02     0.10098168558680E+02     0.17255144477588E+01
   O       0.22181628995466E+02     0.14220513357205E+02     0.57393753072948E+01
   O       0.18170102388263E+02     0.19260658058406E+01     0.30225380657668E+02
   O       0.18172843714307E+02     0.59995514283774E+01     0.26204841320233E+02
   O       0.22243323640513E+02     0.19288457624310E+01     0.26204828981709E+02
   O       0.22240391613399E+02     0.59964731001257E+01     0.30223807830374E+02
   O       0.18168906405006E+02     0.19248790775217E+01     0.22187575567742E+02
   O       0.18120020259674E+02     0.59081865184604E+01     0.18119113324914E+02
   O       0.22152282985419E+02     0.18762592942399E+01     0.18119084291940E+02
   O       0.22257678927972E+02     0.60139342001940E+01     0.22148524748662E+02
   O       0.18151192946628E+02     0.19071610686440E+01     0.14004815878603E+02
   O       0.18114423045351E+02     0.59048287618303E+01     0.98868460389690E+01
   O       0.22148927335190E+02     0.18706954733061E+01     0.98868874735319E+01
   O       0.22186927608264E+02     0.59430203188437E+01     0.14002736758461E+02
   O       0.18165445775781E+02     0.19214432599951E+01     0.58200059459230E+01
   O       0.18166386684367E+02     0.59947248687828E+01     0.17885556632056E+01
   O       0.22238623436901E+02     0.19223944822087E+01     0.17885547197180E+01
   O       0.22240954520147E+02     0.59970863972691E+01     0.58420612178486E+01
   O       0.10033422834604E+02     0.18330888418813E+02     0.30223861858327E+02
   O       0.10030551655391E+02     0.22398648097130E+02     0.26204984282191E+02
   O       0.14101128292747E+02     0.18327975608216E+02     0.26204980601781E+02
   O       0.14103897583967E+02     0.22401368003638E+02     0.30225391819934E+02
   O       0.10016781073889E+02     0.18314255052098E+02     0.22149032682603E+02
   O       0.10122717269338E+02     0.22452119054362E+02     0.18119315423439E+02
   O       0.14154582666948E+02     0.18420356854796E+02     0.18119253032802E+02
   O       0.14105609989882E+02     0.22403144420270E+02     0.22187685944785E+02
   O       0.10087292652594E+02     0.18384900332531E+02     0.14002712160427E+02
   O       0.10125814403980E+02     0.22457503186187E+02     0.98866465823373E+01
   O       0.14159944936372E+02     0.18423612092728E+02     0.98866921776676E+01
   O       0.14123683423237E+02     0.22421442402875E+02     0.14004811918452E+02
   O       0.10033208942061E+02     0.18330652927105E+02     0.58416459123544E+01
   O       0.10035256040421E+02     0.22405139893302E+02     0.17884574866106E+01
   O       0.14107618793900E+02     0.18332678074986E+02     0.17884761594184E+01
   O       0.14108979506051E+02     0.22406516012387E+02     0.58199083505946E+01
   O       0.10072603026583E+02     0.10101598039936E+02     0.30235467814621E+02
   O       0.10084655341155E+02     0.14222621424768E+02     0.26279525942264E+02
   O       0.14108035455180E+02     0.10099662155389E+02     0.26235485924713E+02
   O       0.14130028813120E+02     0.14226985470008E+02     0.30226267579666E+02
   O       0.10063369545331E+02     0.10115366873588E+02     0.22231793437430E+02
   O       0.10631644530796E+02     0.14176866643648E+02     0.18059932660254E+02
   O       0.14232683554019E+02     0.10013482760429E+02     0.18199292700970E+02
   O       0.14142164200470E+02     0.14229042781306E+02     0.22254263226983E+02
   O       0.10772084455680E+02     0.10211657918321E+02     0.13986421567697E+02
   O       0.10647781893689E+02     0.14190436514898E+02     0.98988681484113E+01
   O       0.14223335034891E+02     0.10014048728277E+02     0.97942208044601E+01
   O       0.14251428749629E+02     0.14345794005607E+02     0.13991261317486E+02
   O       0.10091825706881E+02     0.10106879808836E+02     0.57394153278699E+01
   O       0.10092997782057E+02     0.14228794089937E+02     0.17254242007072E+01
   O       0.14116008194592E+02     0.10097276546683E+02     0.17580497409270E+01
   O       0.14150675513339E+02     0.14233897005974E+02     0.57449180119901E+01
   O       0.10028750283110E+02     0.19274898954407E+01     0.30221226037285E+02
   O       0.10019268743222E+02     0.60101520603293E+01     0.26206249640670E+02
   O       0.14101004521126E+02     0.19282976412999E+01     0.26209878578575E+02
   O       0.14101608589747E+02     0.60005734188012E+01     0.30221233854255E+02
[...]
   O      -0.11392630780379E-04    -0.10685662502423E-05     0.32810744394901E-04
   O       0.57234063667679E-05    -0.50119258780726E-04    -0.14551294284518E-04
   O      -0.42213014566549E-04    -0.36092085767805E-04     0.21964237043573E-04
   O       0.44854642852136E-05     0.37648845199453E-05     0.11384281740217E-03
   O       0.41488375076042E-04     0.85974289891788E-05     0.30983998989312E-04
   O       0.84090176122323E-05     0.41135972683932E-04     0.31101924741122E-04
   O      -0.45088445370237E-06    -0.80541198527325E-06    -0.57898725877165E-04
   O       0.35859345484324E-04     0.35059027913021E-04    -0.30097360207535E-04
   O       0.34947071611933E-04    -0.53499081738015E-04    -0.37950052828139E-05
   O      -0.53702484713076E-04     0.34846201652961E-04    -0.37608769263368E-05
   O      -0.34739068049865E-05    -0.37224237091978E-05     0.17172323783984E-04
   O      -0.35318123101267E-05    -0.39185158011083E-05    -0.12386389189946E-04
   O      -0.39873882163728E-04     0.54107213824374E-04     0.18115222666222E-04
   O       0.54257999192777E-04    -0.40358665949651E-04     0.17847964514594E-04
   O      -0.33306807505247E-06    -0.70385301955463E-06     0.75165145470991E-05
   O      -0.37041417313848E-04    -0.37111413259971E-04     0.18174100671673E-04
   O      -0.48616736205003E-04    -0.14045589888504E-04     0.34176544156635E-05
   O      -0.13718600221160E-04    -0.48888783790558E-04     0.36371566913907E-05
   O       0.43151898721262E-05     0.38351160655185E-05     0.11076922307573E-04
   O       0.35176326730797E-06     0.69631886838862E-07    -0.57503548962834E-04
   O      -0.91177755490175E-05    -0.42442021924793E-04     0.31132930430459E-04
   O      -0.42147000363478E-04    -0.93793317129622E-05     0.31311624051876E-04
   O      -0.46165664961412E-05    -0.50657307907159E-05     0.11427844783394E-03
   O       0.32500288709844E-05     0.33565614861990E-05     0.17304749291057E-04
   O       0.52910410356230E-04    -0.36239051618541E-04    -0.35281152508302E-05
   O      -0.35698511187844E-04     0.52594497528306E-04    -0.39022926552376E-05
   O      -0.35185797364687E-04    -0.35330890484016E-04    -0.29997780260699E-04
   O      -0.21326840128535E-06    -0.78309879888040E-06     0.73707470979967E-05
   O      -0.54193859914043E-04     0.39751940466810E-04     0.17967723935435E-04
   O       0.39990665638071E-04    -0.54969735562486E-04     0.18113534459822E-04
   O       0.34949632726630E-05     0.30212017111046E-05    -0.12519083646992E-04
   O      -0.54399768816497E-05    -0.56326490888471E-05     0.11327184334045E-04
   O       0.13309240327967E-04     0.48365418165913E-04     0.32290242706831E-05
   O       0.48538655408260E-04     0.12919209030021E-04     0.34761747399288E-05
   O       0.35701962875030E-04     0.35492625086162E-04     0.18318484331753E-04
   O       0.69119098743534E-05    -0.83382642046271E-05     0.16421714178808E-04
   O       0.95116649706675E-05    -0.47373044584345E-04    -0.67125999685309E-05
   O      -0.31084115672769E-05    -0.29334772180519E-06     0.81395650988682E-05
   O      -0.52371882703234E-05    -0.50457842466560E-05    -0.70739769816079E-04
   O      -0.28531117557286E-04    -0.33784837783046E-04     0.70312007863331E-05
   O       0.11680295818612E-04    -0.25170112045010E-04     0.37545019888623E-04
   O       0.59139326483767E-04    -0.54671515733008E-04     0.54824800310186E-04
   O       0.24094378259055E-04     0.12289969422936E-04     0.42423986045463E-05
   O       0.10968038638964E-04     0.90803569365843E-05     0.15378415289912E-04
   O      -0.31083780225598E-04     0.40784150373101E-04     0.40155772958213E-04
   O      -0.49042699848384E-04     0.55048656765666E-04     0.37668341469680E-04
   O      -0.95005861734387E-05     0.36519497822792E-05     0.92660786926916E-04
   O       0.41416133270038E-04     0.35160101173571E-04     0.21951948690684E-04
   O      -0.59183200365161E-05     0.49450635300942E-04    -0.14245843815136E-04
   O       0.11900790485911E-04     0.21071410247534E-06     0.33002404729052E-04
   O      -0.30142291720450E-04    -0.13004466436933E-04    -0.55804628233151E-05
   O      -0.73336769871862E-05     0.74357974901113E-05    -0.24903583231049E-04
   O      -0.34876153224121E-04     0.33641343935100E-04    -0.44503100153667E-04
   O      -0.12971070009596E-04     0.13150292413886E-04    -0.63744123308877E-05
   O      -0.80960809561257E-05     0.67754647527457E-05    -0.25131127438705E-04
   O       0.75653310270497E-06     0.17611845556761E-04     0.21535524575553E-04
   O      -0.96378717886429E-05     0.90038769961082E-05     0.98322765375977E-05
   O       0.54957514111076E-04    -0.56041403142438E-04    -0.38188412395246E-04
   O      -0.18996855554308E-04    -0.22609969921048E-05     0.21309753993080E-04
   O       0.30007695961311E-07    -0.76707703486789E-05     0.71673648716829E-04
   O       0.26715191664741E-04    -0.27274661451705E-04     0.29652974268104E-04
   O      -0.62555188889087E-04     0.62562531021713E-04    -0.47447349087317E-04
   O       0.71259140045827E-05    -0.60980536728365E-06     0.71281059033782E-04
   O       0.67289303588504E-05    -0.24463666580313E-04     0.99266092390506E-05
   O       0.39515146397215E-04    -0.40192240461707E-04    -0.37744947622948E-04
   O       0.15063037734089E-04    -0.16678750009957E-04     0.11665955028234E-05
   O       0.24434362933324E-04    -0.66946584188472E-05     0.10236941927471E-04
   O      -0.81802603959518E-05     0.66098330832767E-05     0.16128744322285E-04
   O      -0.22576381333514E-06    -0.34251600863623E-05     0.83819920359762E-05
   O      -0.47090170726206E-04     0.87980083408351E-05    -0.66418158720493E-05
   O      -0.46208857199540E-05    -0.55776289534740E-05    -0.71043705685870E-04
   O      -0.33289325191109E-04    -0.29378923534178E-04     0.72272357958866E-05
   O      -0.54779740481714E-04     0.58429166160945E-04     0.54732750076944E-04
   O      -0.24403030959287E-04     0.11326194235782E-04     0.37808212016321E-04
   O       0.12723831909947E-04     0.23970011138667E-04     0.45090821840595E-05
   O       0.95947173632616E-05     0.10994048481379E-04     0.15287975041134E-04
   O       0.55466651953077E-04    -0.49335867612381E-04     0.37888058286497E-04
   O       0.40559521480934E-04    -0.31227550998503E-04     0.40212405899173E-04
   O       0.37487020857815E-05    -0.98246845268721E-05     0.92408360299285E-04
   O       0.34921354417530E-04     0.41292730387294E-04     0.21945628321741E-04
   O       0.29958030389244E-06     0.11934212567130E-04     0.33225744710624E-04
   O       0.49632207249953E-04    -0.60564742713669E-05    -0.14541517366858E-04
   O      -0.12699553103557E-04    -0.30372004103931E-04    -0.55647389730290E-05
   O       0.53392628995863E-06     0.24909562283703E-06     0.32618319463686E-04
   O      -0.20634974635868E-04     0.20342959768542E-04    -0.45524531791023E-04
   O       0.20519011021299E-04    -0.21025016901390E-04    -0.45572432671120E-04
   O      -0.92433416709939E-06    -0.94294135082312E-06     0.32738463697128E-04
   O       0.57623785237378E-05     0.53385774324804E-05    -0.41760434155678E-06
   O      -0.67635606218219E-05    -0.67976324428748E-05    -0.20232419090972E-06
   O      -0.14813835125517E-04    -0.14717929320836E-04    -0.24926047198063E-04
   O       0.15520063127520E-04    -0.16758964892637E-04    -0.15680138446511E-04
   O      -0.16452520508961E-04     0.15323300145429E-04    -0.15537418620802E-04
   O       0.13951786490919E-04     0.13570371582967E-04    -0.25388579955255E-04
   O       0.45244456673368E-05     0.49483853538876E-05    -0.71029876538863E-04
   O       0.47117488951353E-04    -0.10202008842987E-04    -0.71622760991911E-05
   O       0.37173493482858E-07     0.18191353054228E-05     0.75827491903754E-05
   O       0.77492104914228E-05    -0.76779401727990E-05     0.16622370747852E-04
   O      -0.13078622133476E-04    -0.24262597742259E-04     0.42950263567957E-05
   O       0.24066624641518E-04    -0.12863601873425E-04     0.37128932050683E-04
   O       0.54845849413535E-04    -0.59813650354178E-04     0.49289757148603E-04
   O       0.31847542499829E-04     0.28461524146944E-04     0.70217078863540E-05
   O      -0.49281461949159E-05     0.91240203256614E-05     0.92123861690349E-04
   O      -0.40717135295626E-04     0.30757473965280E-04     0.39929606221407E-04
   O      -0.56492763568705E-04     0.48116031154842E-04     0.37422043559018E-04
   O      -0.98747160106475E-05    -0.11741478040381E-04     0.15313196379986E-04
   O       0.12620940348339E-04     0.29050201917521E-04    -0.53585978029638E-05
   O      -0.50008736886308E-04     0.53495644001512E-05    -0.14569729043063E-04
   O      -0.58832622360297E-06    -0.11285144312996E-04     0.32915518786334E-04
   O      -0.35088342947892E-04    -0.42441639584641E-04     0.22213776947208E-04
 


   Partial temperatures (for each ionic specie) 
   Species  Temp (K)   Mean Square Displacement (a.u.)
        1   6.75E-03     2.2284E-03
        2   1.16E-01     6.1589E-03
        3   7.06E-02     3.0900E-04
 
  nfi     ekinc              temph  tempp     etot                 enthal               econs                econt              vnhh    xnhh0   vnhp    xnhp0
   1800    0.000000642153403    0.0    0.04   -2898.530429703265   -2898.544490662924   -2898.544433388155   -2898.544432746001   0.0000   0.0000   0.0000   0.0000
Elct. dipole 1  -29.971298  Ionic dipole 1   15.910338

   writing restart file (with schema): ./Ag16_334_59.save/
     restart      :     34.82s CPU     40.01s WALL (      11 calls)
   1801    0.000000638366617    0.0    0.04   -2898.530430197800   -2898.544490073814   -2898.544432468830   -2898.544431830464   0.0000   0.0000   0.0000   0.0000
Elct. dipole 1  -29.966739  Ionic dipole 1   15.906863
   1802    0.000000634576174    0.0    0.04   -2898.530430681052   -2898.544489463613   -2898.544431525362   -2898.544430890785   0.0000   0.0000   0.0000   0.0000
Elct. dipole 1  -29.962172  Ionic dipole 1   15.903390
   1803    0.000000630842100    0.0    0.04   -2898.530431088904   -2898.544488769341   -2898.544430494937   -2898.544429864095   0.0000   0.0000   0.0000   0.0000
Elct. dipole 1  -29.957597  Ionic dipole 1   15.899917
   1804    0.000000627166739    0.0    0.04   -2898.530431557675   -2898.544488128414   -2898.544429515131   -2898.544428887964   0.0000   0.0000   0.0000   0.0000
Elct. dipole 1  -29.953016  Ionic dipole 1   15.896446
   1805    0.000000623504543    0.0    0.04   -2898.530432020772   -2898.544487474319   -2898.544428519575   -2898.544427896071   0.0000   0.0000   0.0000   0.0000
Elct. dipole 1  -29.948429  Ionic dipole 1   15.892976
   1806    0.000000619836033    0.0    0.04   -2898.530432475141   -2898.544486803279   -2898.544427504628   -2898.544426884792   0.0000   0.0000   0.0000   0.0000
Elct. dipole 1  -29.943835  Ionic dipole 1   15.889507
   1807    0.000000616186609    0.0    0.04   -2898.530432945462   -2898.544486139258   -2898.544426494402   -2898.544425878215   0.0000   0.0000   0.0000   0.0000
Elct. dipole 1  -29.939234  Ionic dipole 1   15.886040
   1808    0.000000612577278    0.0    0.04   -2898.530433300946   -2898.544485351688   -2898.544425358494   -2898.544424745916   0.0000   0.0000   0.0000   0.0000
Elct. dipole 1  -29.934625  Ionic dipole 1   15.882574
   1809    0.000000608998543    0.0    0.04   -2898.530433772448   -2898.544484672494   -2898.544424328990   -2898.544423719991   0.0000   0.0000   0.0000   0.0000
Elct. dipole 1  -29.930011  Ionic dipole 1   15.879111
   1810    0.000000605444242    0.0    0.04   -2898.530434212771   -2898.544483955647   -2898.544423260020   -2898.544422654576   0.0000   0.0000   0.0000   0.0000
Elct. dipole 1  -29.925392  Ionic dipole 1   15.875649
   1811    0.000000601925479    0.0    0.04   -2898.530434610924   -2898.544483190593   -2898.544422141185   -2898.544421539259   0.0000   0.0000   0.0000   0.0000
Elct. dipole 1  -29.920769  Ionic dipole 1   15.872189
   1812    0.000000598443822    0.0    0.04   -2898.530435070810   -2898.544482480662   -2898.544421075960   -2898.544420477516   0.0000   0.0000   0.0000   0.0000
Elct. dipole 1  -29.916141  Ionic dipole 1   15.868731
   1813    0.000000594984562    0.0    0.05   -2898.530435499691   -2898.544481732351   -2898.544419970980   -2898.544419375996   0.0000   0.0000   0.0000   0.0000
Elct. dipole 1  -29.911509  Ionic dipole 1   15.865276
   1814    0.000000591530795    0.0    0.05   -2898.530435943890   -2898.544480991718   -2898.544418872458   -2898.544418280927   0.0000   0.0000   0.0000   0.0000
Elct. dipole 1  -29.906870  Ionic dipole 1   15.861823
   1815    0.000000588094609    0.0    0.05   -2898.530436443365   -2898.544480299232   -2898.544417821020   -2898.544417232926   0.0000   0.0000   0.0000   0.0000
Elct. dipole 1  -29.902228  Ionic dipole 1   15.858372
   1816    0.000000584699948    0.0    0.05   -2898.530436959370   -2898.544479616922   -2898.544416778866   -2898.544416194166   0.0000   0.0000   0.0000   0.0000
Elct. dipole 1  -29.897581  Ionic dipole 1   15.854924
   1817    0.000000581353206    0.0    0.05   -2898.530437397053   -2898.544478850274   -2898.544415651638   -2898.544415070285   0.0000   0.0000   0.0000   0.0000
Elct. dipole 1  -29.892931  Ionic dipole 1   15.851478
   1818    0.000000578048498    0.0    0.05   -2898.530437819360   -2898.544478062029   -2898.544414502230   -2898.544413924182   0.0000   0.0000   0.0000   0.0000
Elct. dipole 1  -29.888278  Ionic dipole 1   15.848035
   1819    0.000000574773576    0.0    0.05   -2898.530438366042   -2898.544477391421   -2898.544413470026   -2898.544412895252   0.0000   0.0000   0.0000   0.0000
Elct. dipole 1  -29.883621  Ionic dipole 1   15.844595
   1820    0.000000571524329    0.0    0.05   -2898.530438781847   -2898.544476582952   -2898.544412299668   -2898.544411728144   0.0000   0.0000   0.0000   0.0000
Elct. dipole 1  -29.878959  Ionic dipole 1   15.841158
   1821    0.000000568299119    0.0    0.05   -2898.530439152297   -2898.544475722363   -2898.544411077045   -2898.544410508746   0.0000   0.0000   0.0000   0.0000
Elct. dipole 1  -29.874295  Ionic dipole 1   15.837724
   1822    0.000000565097398    0.0    0.05   -2898.530439634360   -2898.544474967293   -2898.544409959946   -2898.544409394849   0.0000   0.0000   0.0000   0.0000
Elct. dipole 1  -29.869627  Ionic dipole 1   15.834294
   1823    0.000000561923158    0.0    0.05   -2898.530440151544   -2898.544474241667   -2898.544408872454   -2898.544408310531   0.0000   0.0000   0.0000   0.0000
Elct. dipole 1  -29.864957  Ionic dipole 1   15.830867
   1824    0.000000558786221    0.0    0.05   -2898.530440595384   -2898.544473437194   -2898.544407706438   -2898.544407147652   0.0000   0.0000   0.0000   0.0000
Elct. dipole 1  -29.860285  Ionic dipole 1   15.827443
   1825    0.000000555696571    0.0    0.05   -2898.530441060346   -2898.544472648100   -2898.544406556280   -2898.544406000583   0.0000   0.0000   0.0000   0.0000
Elct. dipole 1  -29.855610  Ionic dipole 1   15.824023
   1826    0.000000552651597    0.0    0.05   -2898.530441535693   -2898.544471863444   -2898.544405411185   -2898.544404858534   0.0000   0.0000   0.0000   0.0000
Elct. dipole 1  -29.850934  Ionic dipole 1   15.820606
   1827    0.000000549641540    0.0    0.05   -2898.530442134330   -2898.544471196226   -2898.544404384301   -2898.544403834659   0.0000   0.0000   0.0000   0.0000
Elct. dipole 1  -29.846255  Ionic dipole 1   15.817193
   1828    0.000000546660821    0.0    0.05   -2898.530442594067   -2898.544470384712   -2898.544403214032   -2898.544402667371   0.0000   0.0000   0.0000   0.0000
Elct. dipole 1  -29.841575  Ionic dipole 1   15.813784
   1829    0.000000543707815    0.0    0.05   -2898.530443036693   -2898.544469551035   -2898.544402022654   -2898.544401478946   0.0000   0.0000   0.0000   0.0000
Elct. dipole 1  -29.836894  Ionic dipole 1   15.810380
   1830    0.000000540784983    0.0    0.05   -2898.530443521404   -2898.544468754682   -2898.544400869799   -2898.544400329014   0.0000   0.0000   0.0000   0.0000
Elct. dipole 1  -29.832212  Ionic dipole 1   15.806979
   1831    0.000000537897483    0.0    0.05   -2898.530444011488   -2898.544467958755   -2898.544399718721   -2898.544399180824   0.0000   0.0000   0.0000   0.0000
Elct. dipole 1  -29.827530  Ionic dipole 1   15.803582
   1832    0.000000535048481    0.0    0.05   -2898.530444500344   -2898.544467156472   -2898.544398562788   -2898.544398027740   0.0000   0.0000   0.0000   0.0000
Elct. dipole 1  -29.822847  Ionic dipole 1   15.800190
   1833    0.000000532242943    0.0    0.05   -2898.530445008444   -2898.544466368298   -2898.544397422611   -2898.544396890368   0.0000   0.0000   0.0000   0.0000
Elct. dipole 1  -29.818163  Ionic dipole 1   15.796803
   1834    0.000000529481489    0.0    0.05   -2898.530445540226   -2898.544465598901   -2898.544396303001   -2898.544395773519   0.0000   0.0000   0.0000   0.0000
Elct. dipole 1  -29.813478  Ionic dipole 1   15.793420
   1835    0.000000526757466    0.0    0.05   -2898.530446021977   -2898.544464774894   -2898.544395130704   -2898.544394603946   0.0000   0.0000   0.0000   0.0000
Elct. dipole 1  -29.808794  Ionic dipole 1   15.790041
   1836    0.000000524066939    0.0    0.05   -2898.530446574924   -2898.544464017808   -2898.544394027392   -2898.544393503325   0.0000   0.0000   0.0000   0.0000
Elct. dipole 1  -29.804111  Ionic dipole 1   15.786668
   1837    0.000000521409616    0.0    0.05   -2898.530446969569   -2898.544463098097   -2898.544392763656   -2898.544392242246   0.0000   0.0000   0.0000   0.0000
Elct. dipole 1  -29.799428  Ionic dipole 1   15.783299
   1838    0.000000518788490    0.0    0.05   -2898.530447385224   -2898.544462195101   -2898.544391518973   -2898.544391000184   0.0000   0.0000   0.0000   0.0000
Elct. dipole 1  -29.794746  Ionic dipole 1   15.779936
   1839    0.000000516208831    0.0    0.05   -2898.530447826928   -2898.544461313835   -2898.544390298498   -2898.544389782289   0.0000   0.0000   0.0000   0.0000
Elct. dipole 1  -29.790064  Ionic dipole 1   15.776577
   1840    0.000000513671149    0.0    0.05   -2898.530448288313   -2898.544460448134   -2898.544389096201   -2898.544388582530   0.0000   0.0000   0.0000   0.0000
Elct. dipole 1  -29.785384  Ionic dipole 1   15.773224
   1841    0.000000511171074    0.0    0.05   -2898.530448752556   -2898.544459581448   -2898.544387895666   -2898.544387384495   0.0000   0.0000   0.0000   0.0000
Elct. dipole 1  -29.780705  Ionic dipole 1   15.769876
   1842    0.000000508707884    0.0    0.05   -2898.530449210357   -2898.544458704741   -2898.544386687985   -2898.544386179278   0.0000   0.0000   0.0000   0.0000
Elct. dipole 1  -29.776028  Ionic dipole 1   15.766534
   1843    0.000000506282998    0.0    0.05   -2898.530449582346   -2898.544457738675   -2898.544385393951   -2898.544384887668   0.0000   0.0000   0.0000   0.0000
Elct. dipole 1  -29.771354  Ionic dipole 1   15.763197
   1844    0.000000503897468    0.0    0.05   -2898.530449974500   -2898.544456789324   -2898.544384119767   -2898.544383615869   0.0000   0.0000   0.0000   0.0000
Elct. dipole 1  -29.766681  Ionic dipole 1   15.759866
   1845    0.000000501551792    0.0    0.05   -2898.530450426318   -2898.544455896128   -2898.544382905002   -2898.544382403451   0.0000   0.0000   0.0000   0.0000
Elct. dipole 1  -29.762011  Ionic dipole 1   15.756541
   1846    0.000000499245619    0.0    0.05   -2898.530450840844   -2898.544454962354   -2898.544381653051   -2898.544381153805   0.0000   0.0000   0.0000   0.0000
Elct. dipole 1  -29.757343  Ionic dipole 1   15.753222
   1847    0.000000496980060    0.0    0.05   -2898.530451254558   -2898.544454024692   -2898.544380400728   -2898.544379903748   0.0000   0.0000   0.0000   0.0000
Elct. dipole 1  -29.752679  Ionic dipole 1   15.749908
