
     Program CP v.6.6 starts on 18Feb2021 at 14:30:24 

     This program is part of the open-source Quantum ESPRESSO suite
     for quantum simulation of materials; please cite
         "P. Giannozzi et al., J. Phys.:Condens. Matter 21 395502 (2009);
         "P. Giannozzi et al., J. Phys.:Condens. Matter 29 465901 (2017);
          URL http://www.quantum-espresso.org", 
     in publications or presentations arising from this work. More details at
     http://www.quantum-espresso.org/quote

     Parallel version (MPI & OpenMP), running on     320 processor cores
     Number of MPI processes:               160
     Threads/MPI process:                     2

     MPI processes distributed on     4 nodes
     R & G space division:  proc/nbgrp/npool/nimage =     160
     Fft bands division:     nmany     =       1
     Waiting for input...
     Reading input from standard input

   Job Title: MD Simulation


   Atomic Pseudopotentials Parameters
   ----------------------------------

   Reading pseudopotential for specie #  1 from file :
   ./O.pz-n-rrkjus_psl.0.1.UPF
     Message from routine emend_upf/check:
     BEWARE !!! Possible out of bounds while fixing pseudo
     Message from routine emend_upf/check:
     BEWARE !!! Possible out of bounds while fixing pseudo
     Message from routine read_upf:
     Pseudo file O.pz-n-rrkjus_psl.0.1.UPF has been fixed on the fly.
     To avoid this message in the future, permanently fix 
     your pseudo files following these instructions: 
     https://gitlab.com/QEF/q-e/blob/master/upftools/how_to_fix_upf.md
   file type is UPF v.2

   Reading pseudopotential for specie #  2 from file :
   ./Ag.pz-d-rrkjus.UPF
   file type is UPF v.1

   Reading pseudopotential for specie #  3 from file :
   ./Mg.pz-bhs.UPF
   file type is UPF v.1
     file Ag.pz-d-rrkjus.UPF: wavefunction(s)  4D 5S renormalized


   Main Simulation Parameters (from input)
   ---------------------------------------
   Restart Mode       =       1   restart        
   Number of MD Steps =    7000
   Print out every           10 MD Steps
   Reads from unit    =      59
   Writes to unit     =      59
   MD Simulation time step            =       8.00
   Electronic fictitious mass (emass) =     300.00
   emass cut-off                      =       2.50

   Simulation Cell Parameters (from input)
   external pressure       =            0.00 [KBar]
   wmass (calculated)      =       949740.81 [AU]
   initial cell from CELL_PARAMETERS card
      12.63360000    0.00000000    0.00000000
       0.00000000   12.63360000    0.00000000
       0.00000000    0.00000000   16.84480000
   ibrav =    0
   alat  =    23.87404397
   a1    =    23.87404397    0.00000000    0.00000000
   a2    =     0.00000000   23.87404397    0.00000000
   a3    =     0.00000000    0.00000000   31.83205862
 
   b1    =     0.04188649    0.00000000    0.00000000
   b2    =     0.00000000    0.04188649    0.00000000
   b3    =     0.00000000    0.00000000    0.03141487
   omega =   18143.31767057

   Energy Cut-offs
   ---------------
   Ecutwfc =   50.0 Ry,      Ecutrho =  400.0 Ry,      Ecuts =  200.0 Ry
   Gcutwfc =   26.9     ,    Gcutrho =   76.0          Gcuts =   53.7
   NOTA BENE: refg, mmx =   0.050000  9600
   Eigenvalues calculated without the kinetic term contribution
   Orthog. with lagrange multipliers : eps =   0.10E-08,  max = 100
   verlet algorithm for electron dynamics
   with friction frice =  0.0500 , grease =  1.0000
   Electron dynamics : the temperature is not controlled

   Electronic states
   -----------------
   Number of Electrons=  1236, of States =   618
   Occupation numbers :
   2.00 2.00 2.00 2.00 2.00 2.00 2.00 2.00 2.00 2.00
   2.00 2.00 2.00 2.00 2.00 2.00 2.00 2.00 2.00 2.00
   2.00 2.00 2.00 2.00 2.00 2.00 2.00 2.00 2.00 2.00
   2.00 2.00 2.00 2.00 2.00 2.00 2.00 2.00 2.00 2.00
   2.00 2.00 2.00 2.00 2.00 2.00 2.00 2.00 2.00 2.00
   2.00 2.00 2.00 2.00 2.00 2.00 2.00 2.00 2.00 2.00
   2.00 2.00 2.00 2.00 2.00 2.00 2.00 2.00 2.00 2.00
   2.00 2.00 2.00 2.00 2.00 2.00 2.00 2.00 2.00 2.00
   2.00 2.00 2.00 2.00 2.00 2.00 2.00 2.00 2.00 2.00
   2.00 2.00 2.00 2.00 2.00 2.00 2.00 2.00 2.00 2.00
   2.00 2.00 2.00 2.00 2.00 2.00 2.00 2.00 2.00 2.00
   2.00 2.00 2.00 2.00 2.00 2.00 2.00 2.00 2.00 2.00
   2.00 2.00 2.00 2.00 2.00 2.00 2.00 2.00 2.00 2.00
   2.00 2.00 2.00 2.00 2.00 2.00 2.00 2.00 2.00 2.00
   2.00 2.00 2.00 2.00 2.00 2.00 2.00 2.00 2.00 2.00
   2.00 2.00 2.00 2.00 2.00 2.00 2.00 2.00 2.00 2.00
   2.00 2.00 2.00 2.00 2.00 2.00 2.00 2.00 2.00 2.00
   2.00 2.00 2.00 2.00 2.00 2.00 2.00 2.00 2.00 2.00
   2.00 2.00 2.00 2.00 2.00 2.00 2.00 2.00 2.00 2.00
   2.00 2.00 2.00 2.00 2.00 2.00 2.00 2.00 2.00 2.00
   2.00 2.00 2.00 2.00 2.00 2.00 2.00 2.00 2.00 2.00
   2.00 2.00 2.00 2.00 2.00 2.00 2.00 2.00 2.00 2.00
   2.00 2.00 2.00 2.00 2.00 2.00 2.00 2.00 2.00 2.00
   2.00 2.00 2.00 2.00 2.00 2.00 2.00 2.00 2.00 2.00
   2.00 2.00 2.00 2.00 2.00 2.00 2.00 2.00 2.00 2.00
   2.00 2.00 2.00 2.00 2.00 2.00 2.00 2.00 2.00 2.00
   2.00 2.00 2.00 2.00 2.00 2.00 2.00 2.00 2.00 2.00
   2.00 2.00 2.00 2.00 2.00 2.00 2.00 2.00 2.00 2.00
   2.00 2.00 2.00 2.00 2.00 2.00 2.00 2.00 2.00 2.00
   2.00 2.00 2.00 2.00 2.00 2.00 2.00 2.00 2.00 2.00
   2.00 2.00 2.00 2.00 2.00 2.00 2.00 2.00 2.00 2.00
   2.00 2.00 2.00 2.00 2.00 2.00 2.00 2.00 2.00 2.00
   2.00 2.00 2.00 2.00 2.00 2.00 2.00 2.00 2.00 2.00
   2.00 2.00 2.00 2.00 2.00 2.00 2.00 2.00 2.00 2.00
   2.00 2.00 2.00 2.00 2.00 2.00 2.00 2.00 2.00 2.00
   2.00 2.00 2.00 2.00 2.00 2.00 2.00 2.00 2.00 2.00
   2.00 2.00 2.00 2.00 2.00 2.00 2.00 2.00 2.00 2.00
   2.00 2.00 2.00 2.00 2.00 2.00 2.00 2.00 2.00 2.00
   2.00 2.00 2.00 2.00 2.00 2.00 2.00 2.00 2.00 2.00
   2.00 2.00 2.00 2.00 2.00 2.00 2.00 2.00 2.00 2.00
   2.00 2.00 2.00 2.00 2.00 2.00 2.00 2.00 2.00 2.00
   2.00 2.00 2.00 2.00 2.00 2.00 2.00 2.00 2.00 2.00
   2.00 2.00 2.00 2.00 2.00 2.00 2.00 2.00 2.00 2.00
   2.00 2.00 2.00 2.00 2.00 2.00 2.00 2.00 2.00 2.00
   2.00 2.00 2.00 2.00 2.00 2.00 2.00 2.00 2.00 2.00
   2.00 2.00 2.00 2.00 2.00 2.00 2.00 2.00 2.00 2.00
   2.00 2.00 2.00 2.00 2.00 2.00 2.00 2.00 2.00 2.00
   2.00 2.00 2.00 2.00 2.00 2.00 2.00 2.00 2.00 2.00
   2.00 2.00 2.00 2.00 2.00 2.00 2.00 2.00 2.00 2.00
   2.00 2.00 2.00 2.00 2.00 2.00 2.00 2.00 2.00 2.00
   2.00 2.00 2.00 2.00 2.00 2.00 2.00 2.00 2.00 2.00
   2.00 2.00 2.00 2.00 2.00 2.00 2.00 2.00 2.00 2.00
   2.00 2.00 2.00 2.00 2.00 2.00 2.00 2.00 2.00 2.00
   2.00 2.00 2.00 2.00 2.00 2.00 2.00 2.00 2.00 2.00
   2.00 2.00 2.00 2.00 2.00 2.00 2.00 2.00 2.00 2.00
   2.00 2.00 2.00 2.00 2.00 2.00 2.00 2.00 2.00 2.00
   2.00 2.00 2.00 2.00 2.00 2.00 2.00 2.00 2.00 2.00
   2.00 2.00 2.00 2.00 2.00 2.00 2.00 2.00 2.00 2.00
   2.00 2.00 2.00 2.00 2.00 2.00 2.00 2.00 2.00 2.00
   2.00 2.00 2.00 2.00 2.00 2.00 2.00 2.00 2.00 2.00
   2.00 2.00 2.00 2.00 2.00 2.00 2.00 2.00 2.00 2.00
   2.00 2.00 2.00 2.00 2.00 2.00 2.00 2.00


   Exchange and correlations functionals
   -------------------------------------
     Exchange-correlation=  SLA  PZ   NOGX NOGC
                           (   1   1   0   0   0   0   0)


   Ions Simulation Parameters
   --------------------------
   Ions are allowed to move
   Ions dynamics with newton equations
   the temperature is computed for   864 degrees of freedom
   ion dynamics with fricp =  0.0000 and greasp =  1.0000
   Ionic position (from input)
   sorted by specie, and converted to real a.u. coordinates
   Species   1 atoms =  138 mass =     29166.22 (a.u.),        16.00 (amu) rcmax =   0.50 (a.u.)
       17.686732    17.800724    29.675879
       17.686732    21.779731    25.696872
       21.665740    17.800724    25.696872
       21.665739    21.779731    29.675879
       17.686732    17.800724    21.717864
       17.686732    21.779731    17.738857
       21.665740    17.800724    17.738857
       21.665740    21.779731    21.717864
       17.686732    17.800724    13.759849
       17.686732    21.779732     9.780841
       21.665740    17.800724     9.780841
       21.665740    21.779731    13.759849
       17.686733    17.800725     5.801834
       17.686733    21.779732     1.822826
       21.665741    17.800725     1.822826
       21.665740    21.779732     5.801834
       17.686732     9.842708    29.675879
       17.686732    13.821716    25.696872
       21.665740     9.842709    25.696872
       21.665740    13.821716    29.675879
       17.686732     9.842709    21.717864
       17.686732    13.821716    17.738857
       21.665740     9.842709    17.738857
       21.665740    13.821716    21.717864
       17.686733     9.842709    13.759849
       17.686733    13.821717     9.780841
       21.665741     9.842709     9.780841
       21.665740    13.821716    13.759849
       17.686733     9.842709     5.801834
       17.686733    13.821717     1.822826
       21.665741     9.842710     1.822826
       21.665741    13.821717     5.801834
       17.686732     1.884693    29.675879
       17.686732     5.863701    25.696872
       21.665740     1.884693    25.696872
       21.665740     5.863701    29.675879
       17.686733     1.884694    21.717864
       17.686733     5.863701    17.738857
       21.665741     1.884694    17.738857
       21.665740     5.863701    21.717864
       17.686733     1.884694    13.759849
       17.686733     5.863701     9.780841
       21.665741     1.884694     9.780841
       21.665741     5.863701    13.759849
       17.686733     1.884694     5.801834
       17.686733     5.863702     1.822826
       21.665741     1.884695     1.822826
       21.665741     5.863702     5.801834
        9.728716    17.800724    29.675879
        9.728716    21.779731    25.696872
       13.707725    17.800724    25.696872
       13.707724    21.779731    29.675879
        9.728717    17.800724    21.717864
        9.728717    21.779731    17.738857
       13.707725    17.800724    17.738857
       13.707725    21.779731    21.717864
        9.728717    17.800724    13.759849
        9.728717    21.779732     9.780841
       13.707725    17.800724     9.780841
       13.707725    21.779731    13.759849
        9.728718    17.800725     5.801834
        9.728718    21.779732     1.822826
       13.707726    17.800725     1.822826
       13.707725    21.779732     5.801834
        9.728717     9.842708    29.675879
        9.728717    13.821716    25.696872
       13.707725     9.842709    25.696872
       13.707725    13.821716    29.675879
        9.728717     9.842709    21.717864
        9.728717    13.821716    17.738857
       13.707725     9.842709    17.738857
       13.707725    13.821716    21.717864
        9.728718     9.842709    13.759849
        9.728718    13.821717     9.780841
       13.707726     9.842709     9.780841
       13.707725    13.821716    13.759849
        9.728718     9.842709     5.801834
        9.728718    13.821717     1.822826
       13.707726     9.842710     1.822826
       13.707726    13.821717     5.801834
        9.728717     1.884693    29.675879
        9.728717     5.863701    25.696872
       13.707725     1.884693    25.696872
       13.707725     5.863701    29.675879
        9.728718     1.884694    21.717864
        9.728718     5.863701    17.738857
       13.707726     1.884694    17.738857
       13.707725     5.863701    21.717864
        9.728718     1.884694    13.759849
        9.728718     5.863701     9.780841
       13.707726     1.884694     9.780841
       13.707726     5.863701    13.759849
        9.728718     1.884694     5.801834
        9.728718     5.863702     1.822826
       13.707726     1.884695     1.822826
       13.707726     5.863702     5.801834
        1.770701    17.800724    29.675879
        1.770701    21.779731    25.696872
        5.749709    17.800724    25.696872
        5.749709    21.779731    29.675879
        1.770702    17.800724    21.717864
        1.770702    21.779731    17.738857
        5.749710    17.800724    17.738857
        5.749709    21.779731    21.717864
        1.770702    17.800724    13.759849
        1.770702    21.779732     9.780841
        5.749710    17.800724     9.780841
        5.749710    21.779731    13.759849
        1.770702    17.800725     5.801834
        1.770702    21.779732     1.822826
        5.749711    17.800725     1.822826
        5.749710    21.779732     5.801834
        1.770702     9.842708    29.675879
        1.770702    13.821716    25.696872
        5.749710     9.842709    25.696872
        5.749709    13.821716    29.675879
        1.770702     9.842709    21.717864
        5.749710    13.821716    21.717864
        1.770703     9.842709     5.801834
        1.770703    13.821717     1.822826
        5.749711     9.842710     1.822826
        5.749711    13.821717     5.801834
        1.770702     1.884693    29.675879
        1.770702     5.863701    25.696872
        5.749710     1.884693    25.696872
        5.749710     5.863701    29.675879
        1.770702     1.884694    21.717864
        1.770702     5.863701    17.738857
        5.749711     1.884694    17.738857
        5.749710     5.863701    21.717864
        1.770703     1.884694    13.759849
        1.770703     5.863701     9.780841
        5.749711     1.884694     9.780841
        5.749711     5.863701    13.759849
        1.770703     1.884694     5.801834
        1.770703     5.863702     1.822826
        5.749711     1.884695     1.822826
        5.749711     5.863702     5.801834
   Species   2 atoms =   12 mass =    196689.67 (a.u.),       107.90 (amu) rcmax =   0.50 (a.u.)
        1.770702    13.821716    17.738857
        5.749710     9.842709    17.738857
        5.749710    13.821716    17.738857
        1.770702     9.842709    17.738857
        1.770702     9.842709    13.759849
        1.770702    13.821717     9.780841
        5.749711     9.842709     9.780841
        5.749710    13.821717     9.780841
        5.749710     9.842709    13.759849
        1.770702    13.821717    13.759849
        5.749710    13.821716    13.759849
        1.770703     9.842709     9.780841
   Species   3 atoms =  138 mass =     44296.19 (a.u.),        24.30 (amu) rcmax =   0.50 (a.u.)
       21.665739    21.779731    25.696872
       21.665739    17.800724    29.675879
       17.686731    21.779731    29.675879
       17.686732    17.800724    25.696872
       21.665740    21.779732    17.738857
       21.665740    17.800724    21.717864
       17.686732    21.779731    21.717864
       17.686732    17.800724    17.738857
       21.665740    21.779732     9.780841
       21.665740    17.800724    13.759849
       17.686732    21.779732    13.759849
       17.686732    17.800724     9.780841
       21.665740    21.779732     1.822826
       21.665740    17.800725     5.801834
       17.686732    21.779732     5.801834
       17.686733    17.800725     1.822826
       21.665740    13.821716    25.696872
       21.665740     9.842708    29.675879
       17.686732    13.821716    29.675879
       17.686732     9.842709    25.696872
       21.665740    13.821716    17.738857
       21.665740     9.842709    21.717864
       17.686732    13.821716    21.717864
       17.686732     9.842709    17.738857
       21.665740    13.821717     9.780841
       21.665740     9.842709    13.759849
       17.686732    13.821717    13.759849
       17.686733     9.842709     9.780841
       21.665741    13.821717     1.822826
       21.665741     9.842709     5.801834
       17.686733    13.821717     5.801834
       17.686733     9.842710     1.822826
       21.665740     5.863701    25.696872
       21.665740     1.884693    29.675879
       17.686732     5.863701    29.675879
       17.686732     1.884693    25.696872
       21.665740     5.863701    17.738857
       21.665740     1.884694    21.717864
       17.686732     5.863701    21.717864
       17.686733     1.884694    17.738857
       21.665741     5.863702     9.780841
       21.665741     1.884694    13.759849
       17.686733     5.863702    13.759849
       17.686733     1.884694     9.780841
       21.665741     5.863702     1.822826
       21.665741     1.884694     5.801834
       17.686733     5.863702     5.801834
       17.686734     1.884695     1.822826
       13.707724    21.779731    25.696872
       13.707724    17.800724    29.675879
        9.728716    21.779731    29.675879
        9.728717    17.800724    25.696872
       13.707724    21.779732    17.738857
       13.707724    17.800724    21.717864
        9.728717    21.779731    21.717864
        9.728717    17.800724    17.738857
       13.707725    21.779732     9.780841
       13.707725    17.800724    13.759849
        9.728717    21.779732    13.759849
        9.728717    17.800724     9.780841
       13.707725    21.779732     1.822826
       13.707725    17.800725     5.801834
        9.728717    21.779732     5.801834
        9.728718    17.800725     1.822826
       13.707724    13.821716    25.696872
       13.707724     9.842708    29.675879
        9.728717    13.821716    29.675879
        9.728717     9.842709    25.696872
       13.707725    13.821716    17.738857
       13.707725     9.842709    21.717864
        9.728717    13.821716    21.717864
        9.728717     9.842709    17.738857
       13.707725    13.821717     9.780841
       13.707725     9.842709    13.759849
        9.728717    13.821717    13.759849
        9.728718     9.842709     9.780841
       13.707725    13.821717     1.822826
       13.707725     9.842709     5.801834
        9.728718    13.821717     5.801834
        9.728718     9.842710     1.822826
       13.707725     5.863701    25.696872
       13.707725     1.884693    29.675879
        9.728717     5.863701    29.675879
        9.728717     1.884693    25.696872
       13.707725     5.863701    17.738857
       13.707725     1.884694    21.717864
        9.728717     5.863701    21.717864
        9.728718     1.884694    17.738857
       13.707725     5.863702     9.780841
       13.707725     1.884694    13.759849
        9.728718     5.863702    13.759849
        9.728718     1.884694     9.780841
       13.707726     5.863702     1.822826
       13.707726     1.884694     5.801834
        9.728718     5.863702     5.801834
        9.728718     1.884695     1.822826
        5.749709    21.779731    25.696872
        5.749709    17.800724    29.675879
        1.770701    21.779731    29.675879
        1.770702    17.800724    25.696872
        5.749709    21.779732    17.738857
        5.749709    17.800724    21.717864
        1.770702    21.779731    21.717864
        1.770702    17.800724    17.738857
        5.749710    21.779732     9.780841
        5.749710    17.800724    13.759849
        1.770702    21.779732    13.759849
        1.770702    17.800724     9.780841
        5.749710    21.779732     1.822826
        5.749710    17.800725     5.801834
        1.770702    21.779732     5.801834
        1.770703    17.800725     1.822826
        5.749709    13.821716    25.696872
        5.749709     9.842708    29.675879
        1.770702    13.821716    29.675879
        1.770702     9.842709    25.696872
        5.749710     9.842709    21.717864
        1.770702    13.821716    21.717864
        5.749710    13.821717     1.822826
        5.749710     9.842709     5.801834
        1.770703    13.821717     5.801834
        1.770703     9.842710     1.822826
        5.749710     5.863701    25.696872
        5.749710     1.884693    29.675879
        1.770702     5.863701    29.675879
        1.770702     1.884693    25.696872
        5.749710     5.863701    17.738857
        5.749710     1.884694    21.717864
        1.770702     5.863701    21.717864
        1.770703     1.884694    17.738857
        5.749710     5.863702     9.780841
        5.749710     1.884694    13.759849
        1.770703     5.863702    13.759849
        1.770703     1.884694     9.780841
        5.749711     5.863702     1.822826
        5.749711     1.884694     5.801834
        1.770703     5.863702     5.801834
        1.770703     1.884695     1.822826
   Ionic position will be re-read from restart file

   All atoms are allowed to move
   Ionic temperature is not controlled


   Cell Dynamics Parameters (from STDIN)
   -------------------------------------
   internal stress tensor calculated
   Starting cell generated from CELLDM
   Cell parameters will be re-read from restart file
   Constant VOLUME Molecular dynamics
   cell parameters are not allowed to move

    =====================================
    |  BERRY PHASE ELECTRIC FIELD 1        
    =====================================
    | direction    =         3            
    | intensity    =   0.00100 a.u.     
    =====================================

   Verbosity: iverbosity =  0



   Simulation dimensions initialization
   ------------------------------------

   unit vectors of full simulation cell
   in real space:                         in reciprocal space (units 2pi/alat):
   1    23.8740    0.0000    0.0000              1.0000    0.0000    0.0000
   2     0.0000   23.8740    0.0000              0.0000    1.0000    0.0000
   3     0.0000    0.0000   31.8321              0.0000    0.0000    0.7500
 
     Parallelization info
     --------------------
     sticks:   dense  smooth     PW     G-vecs:    dense   smooth      PW
     Min         112      55     13                15304     5404     658
     Max         114      58     16                15338     5430     686
     Sum       18121    9057   2249              2451395   866495  108199
 
 
   Real Mesh
   ---------
   Global Dimensions   Local  Dimensions   Processor Grid
   .X.   .Y.   .Z.     .X.   .Y.   .Z.     .X.   .Y.   .Z.
   160   160   216     160   160     2       1     1   160
   Array leading dimensions ( nr1x, nr2x, nr3x )   =    160   160   216
   Local number of cell to store the grid ( nrxx ) =      51200
   Number of x-y planes for each processors: 
  | 160,   2  | 160,   2  | 160,   2  | 160,   2  | 160,   2
  | 160,   2  | 160,   2  | 160,   2  | 160,   2  | 160,   2
  | 160,   2  | 160,   2  | 160,   2  | 160,   2  | 160,   2
  | 160,   2  | 160,   2  | 160,   2  | 160,   2  | 160,   2
  | 160,   2  | 160,   2  | 160,   2  | 160,   2  | 160,   2
  | 160,   2  | 160,   2  | 160,   2  | 160,   2  | 160,   2
  | 160,   2  | 160,   2  | 160,   2  | 160,   2  | 160,   2
  | 160,   2  | 160,   2  | 160,   2  | 160,   2  | 160,   2
  | 160,   2  | 160,   2  | 160,   2  | 160,   2  | 160,   2
  | 160,   2  | 160,   2  | 160,   2  | 160,   2  | 160,   2
  | 160,   2  | 160,   2  | 160,   2  | 160,   2  | 160,   2
  | 160,   2  | 160,   1  | 160,   1  | 160,   1  | 160,   1
  | 160,   1  | 160,   1  | 160,   1  | 160,   1  | 160,   1
  | 160,   1  | 160,   1  | 160,   1  | 160,   1  | 160,   1
  | 160,   1  | 160,   1  | 160,   1  | 160,   1  | 160,   1
  | 160,   1  | 160,   1  | 160,   1  | 160,   1  | 160,   1
  | 160,   1  | 160,   1  | 160,   1  | 160,   1  | 160,   1
  | 160,   1  | 160,   1  | 160,   1  | 160,   1  | 160,   1
  | 160,   1  | 160,   1  | 160,   1  | 160,   1  | 160,   1
  | 160,   1  | 160,   1  | 160,   1  | 160,   1  | 160,   1
  | 160,   1  | 160,   1  | 160,   1  | 160,   1  | 160,   1
  | 160,   1  | 160,   1  | 160,   1  | 160,   1  | 160,   1
  | 160,   1  | 160,   1  | 160,   1  | 160,   1  | 160,   1
  | 160,   1  | 160,   1  | 160,   1  | 160,   1  | 160,   1
  | 160,   1  | 160,   1  | 160,   1  | 160,   1  | 160,   1
  | 160,   1  | 160,   1  | 160,   1  | 160,   1  | 160,   1
  | 160,   1  | 160,   1  | 160,   1  | 160,   1  | 160,   1
  | 160,   1  | 160,   1  | 160,   1  | 160,   1  | 160,   1
  | 160,   1  | 160,   1  | 160,   1  | 160,   1  | 160,   1
  | 160,   1  | 160,   1  | 160,   1  | 160,   1  | 160,   1
  | 160,   1  | 160,   1  | 160,   1  | 160,   1  | 160,   1
  | 160,   1  | 160,   1  | 160,   1  | 160,   1  | 160,   1
 
   Smooth Real Mesh
   ----------------
   Global Dimensions   Local  Dimensions   Processor Grid
   .X.   .Y.   .Z.     .X.   .Y.   .Z.     .X.   .Y.   .Z.
   108   108   144     108   108     1       1     1   160
   Array leading dimensions ( nr1x, nr2x, nr3x )   =    108   108   144
   Local number of cell to store the grid ( nrxx ) =      11664
   Number of x-y planes for each processors: 
  | 108,   1  | 108,   1  | 108,   1  | 108,   1  | 108,   1
  | 108,   1  | 108,   1  | 108,   1  | 108,   1  | 108,   1
  | 108,   1  | 108,   1  | 108,   1  | 108,   1  | 108,   1
  | 108,   1  | 108,   1  | 108,   1  | 108,   1  | 108,   1
  | 108,   1  | 108,   1  | 108,   1  | 108,   1  | 108,   1
  | 108,   1  | 108,   1  | 108,   1  | 108,   1  | 108,   1
  | 108,   1  | 108,   1  | 108,   1  | 108,   1  | 108,   1
  | 108,   1  | 108,   1  | 108,   1  | 108,   1  | 108,   1
  | 108,   1  | 108,   1  | 108,   1  | 108,   1  | 108,   1
  | 108,   1  | 108,   1  | 108,   1  | 108,   1  | 108,   1
  | 108,   1  | 108,   1  | 108,   1  | 108,   1  | 108,   1
  | 108,   1  | 108,   1  | 108,   1  | 108,   1  | 108,   1
  | 108,   1  | 108,   1  | 108,   1  | 108,   1  | 108,   1
  | 108,   1  | 108,   1  | 108,   1  | 108,   1  | 108,   1
  | 108,   1  | 108,   1  | 108,   1  | 108,   1  | 108,   1
  | 108,   1  | 108,   1  | 108,   1  | 108,   1  | 108,   1
  | 108,   1  | 108,   1  | 108,   1  | 108,   1  | 108,   1
  | 108,   1  | 108,   1  | 108,   1  | 108,   1  | 108,   1
  | 108,   1  | 108,   1  | 108,   1  | 108,   1  | 108,   1
  | 108,   1  | 108,   1  | 108,   1  | 108,   1  | 108,   1
  | 108,   1  | 108,   1  | 108,   1  | 108,   1  | 108,   1
  | 108,   1  | 108,   1  | 108,   1  | 108,   1  | 108,   1
  | 108,   1  | 108,   1  | 108,   1  | 108,   1  | 108,   1
  | 108,   1  | 108,   1  | 108,   1  | 108,   1  | 108,   1
  | 108,   1  | 108,   1  | 108,   1  | 108,   1  | 108,   1
  | 108,   1  | 108,   1  | 108,   1  | 108,   1  | 108,   1
  | 108,   1  | 108,   1  | 108,   1  | 108,   1  | 108,   1
  | 108,   1  | 108,   1  | 108,   1  | 108,   1  | 108,   1
  | 108,   1  | 108,   1  | 108,   1  | 108,   1  | 108,   0
  | 108,   0  | 108,   0  | 108,   0  | 108,   0  | 108,   0
  | 108,   0  | 108,   0  | 108,   0  | 108,   0  | 108,   0
  | 108,   0  | 108,   0  | 108,   0  | 108,   0  | 108,   0
 
   Small Box Real Mesh
   -------------------
   Global Dimensions   Local  Dimensions   Processor Grid
   .X.   .Y.   .Z.     .X.   .Y.   .Z.     .X.   .Y.   .Z.
    30    30    30      30    30    30       1     1     1
   Array leading dimensions ( nr1x, nr2x, nr3x )   =     30    30    30
   Local number of cell to store the grid ( nrxx ) =      27000
 
   unit vectors of box grid cell
   in real space:                         in reciprocal space:
       4.4764    0.0000    0.0000              1.0000    0.0000    0.0000
       0.0000    4.4764    0.0000              0.0000    1.0000    0.0000
       0.0000    0.0000    4.4211              0.0000    0.0000    1.0125
 
   Reciprocal Space Mesh
   ---------------------
   Large Mesh
     Global(ngm_g)    MinLocal       MaxLocal      Average
        1225698           7652           7669        7660.61
   Smooth Mesh
     Global(ngms_g)   MinLocal       MaxLocal      Average
         433248           2702           2715        2707.80
   Wave function Mesh
     Global(ngw_g)    MinLocal       MaxLocal      Average
          54100            329            343         338.12

   Small box Mesh
   ngb =         5979 not distributed to processors


   System geometry initialization
   ------------------------------
   cell parameters read from restart file
   ibrav =    0       cell parameters 


   cell at current step : h(t)
      24.54239       0.00076       0.00000
       0.00076      24.54229       0.00000
       0.00000       0.00000      32.45460

   cell at previous step : h(t-dt)
      24.54239       0.00076       0.00000
       0.00076      24.54229       0.00000
       0.00000       0.00000      32.45460
 
 
   unit vectors of box grid cell
   in real space:                         in reciprocal space:
       4.6017    0.0001    0.0000              1.0000   -0.0000   -0.0000
       0.0001    4.6017    0.0000             -0.0000    1.0000   -0.0000
       0.0000    0.0000    4.5076             -0.0000   -0.0000    1.0209

   Matrix Multiplication Performances
   ortho mmul, time for parallel driver      =   0.00054 with  144 procs

   Constraints matrixes will be distributed block like on
   ortho sub-group =   12*  12 procs



   Pseudopotentials initialization
   -------------------------------
is, nh(is), ngb, kkbeta, lmaxq =     1    8 5979  761    5
 
                        qqq 
  -0.1545  -0.1232   0.0000   0.0000
  -0.1232  -0.0988   0.0000   0.0000
   0.0000   0.0000   0.1445   0.1161
   0.0000   0.0000   0.1161   0.0931
 
is, nh(is), ngb, kkbeta, lmaxq =     2   13 5979  987    5
 
                        qqq 
  -0.0000   0.0000   0.0000
   0.0000   0.5280  -0.5060
   0.0000  -0.5060   0.4853
 


   Common initialization

   Specie:     1
   1  indv=  1   ang. mom=  0
   2  indv=  2   ang. mom=  0
   3  indv=  3   ang. mom=  1
   4  indv=  3   ang. mom=  1
   5  indv=  3   ang. mom=  1
   6  indv=  4   ang. mom=  1
   7  indv=  4   ang. mom=  1
   8  indv=  4   ang. mom=  1
 
                        dion 
   0.3894   0.2818   0.0000   0.0000
   0.2818   0.2028   0.0000   0.0000
   0.0000   0.0000   0.4711   0.4028
   0.0000   0.0000   0.4028   0.3438

   Specie:     2
   1  indv=  1   ang. mom=  1
   2  indv=  1   ang. mom=  1
   3  indv=  1   ang. mom=  1
   4  indv=  2   ang. mom=  2
   5  indv=  2   ang. mom=  2
   6  indv=  2   ang. mom=  2
   7  indv=  2   ang. mom=  2
   8  indv=  2   ang. mom=  2
   9  indv=  3   ang. mom=  2
  10  indv=  3   ang. mom=  2
  11  indv=  3   ang. mom=  2
  12  indv=  3   ang. mom=  2
  13  indv=  3   ang. mom=  2
 
                        dion 
   0.0116   0.0000   0.0000
   0.0000  -1.4888   1.4112
   0.0000   1.4112  -1.3393

   Specie:     3
   1  indv=  1   ang. mom=  0
 
                        dion 
  10.8855

   Cell parameters from input file are used in electron mass preconditioning
   init_tpiba2=    0.06926403
 
   Short Legend and Physical Units in the Output
   ---------------------------------------------
   NFI    [int]          - step index
   EKINC  [HARTREE A.U.] - kinetic energy of the fictitious electronic dynamics
   TEMPH  [K]            - Temperature of the fictitious cell dynamics
   TEMP   [K]            - Ionic temperature
   ETOT   [HARTREE A.U.] - Scf total energy (Kohn-Sham hamiltonian)
   ENTHAL [HARTREE A.U.] - Enthalpy ( ETOT + P * V )
   ECONS  [HARTREE A.U.] - Enthalpy + kinetic energy of ions and cell
   ECONT  [HARTREE A.U.] - Constant of motion for the CP lagrangian
 
 Electronic velocities set to zero

   formf: eself=  5562.85116
   formf:     vps(g=0)=  -0.0000729     rhops(g=0)=  -0.0003057
   formf:     vps(g=0)=  -0.0000727     rhops(g=0)=  -0.0003050
   formf:     vps(g=0)=  -0.0000727     rhops(g=0)=  -0.0003050
   formf:     vps(g=0)=  -0.0000720     rhops(g=0)=  -0.0003028
   formf:     vps(g=0)=  -0.0000720     rhops(g=0)=  -0.0003028
   formf: sum_g vps(g)=   1.1729686 sum_g rhops(g)=  -4.3101249
   formf:     vps(g=0)=   0.0036178     rhops(g=0)=  -0.0005604
   formf:     vps(g=0)=   0.0035924     rhops(g=0)=  -0.0005591
   formf:     vps(g=0)=   0.0035924     rhops(g=0)=  -0.0005591
   formf:     vps(g=0)=   0.0035171     rhops(g=0)=  -0.0005552
   formf:     vps(g=0)=   0.0035171     rhops(g=0)=  -0.0005552
   formf: sum_g vps(g)=   9.1559870 sum_g rhops(g)=  -7.9018956
   formf:     vps(g=0)=   0.0008190     rhops(g=0)=  -0.0001019
   formf:     vps(g=0)=   0.0008121     rhops(g=0)=  -0.0001017
   formf:     vps(g=0)=   0.0008121     rhops(g=0)=  -0.0001017
   formf:     vps(g=0)=   0.0007914     rhops(g=0)=  -0.0001009
   formf:     vps(g=0)=   0.0007914     rhops(g=0)=  -0.0001009
   formf: sum_g vps(g)=   1.8172172 sum_g rhops(g)=  -1.4367083
   Delta V(G=0):   0.049659Ry,    1.351291eV
Initialize Berry phase electric field
 Additional found:           0
 Additional found:           0
 Additional found:           0
 Additional found:           0
 #not found, gtable:    2249.00000000000     
 #not found, gtabin:    2249.00000000000     
 WARNING setting to ZERO ions, electrons and cell velocities without 
 setting to ZERO all velocities could generate meaningles trajectories 
 
  nfi     ekinc              temph  tempp     etot                 enthal               econs                econt              vnhh    xnhh0   vnhp    xnhp0
   1901    0.000000003418040    0.0    0.06   -2898.530465199097   -2898.544393930962   -2898.544311193897   -2898.544311190479   0.0000   0.0000   0.0000   0.0000
Elct. dipole 1  -29.511441  Ionic dipole 1   15.582709
   1902    0.000000069975722    0.0    0.06   -2898.530465035438   -2898.544395968883   -2898.544313412737   -2898.544313342762   0.0000   0.0000   0.0000   0.0000
Elct. dipole 1  -29.510811  Ionic dipole 1   15.579878
   1903    0.000000333847912    0.0    0.06   -2898.530464942750   -2898.544396881060   -2898.544314716572   -2898.544314382724   0.0000   0.0000   0.0000   0.0000
Elct. dipole 1  -29.509094  Ionic dipole 1   15.577156
   1904    0.000000750703759    0.0    0.06   -2898.530465014665   -2898.544396387982   -2898.544314610873   -2898.544313860169   0.0000   0.0000   0.0000   0.0000
Elct. dipole 1  -29.505950  Ionic dipole 1   15.574577
   1905    0.000001013600045    0.0    0.06   -2898.530465195065   -2898.544394585189   -2898.544313041384   -2898.544312027784   0.0000   0.0000   0.0000   0.0000
Elct. dipole 1  -29.501509  Ionic dipole 1   15.572119
   1906    0.000000936274435    0.0    0.06   -2898.530465257590   -2898.544391825267   -2898.544310303771   -2898.544309367497   0.0000   0.0000   0.0000   0.0000
Elct. dipole 1  -29.496284  Ionic dipole 1   15.569716
   1907    0.000000650098711    0.0    0.06   -2898.530465288876   -2898.544388927134   -2898.544307262838   -2898.544306612739   0.0000   0.0000   0.0000   0.0000
Elct. dipole 1  -29.490931  Ionic dipole 1   15.567293
   1908    0.000000378461157    0.0    0.06   -2898.530465271080   -2898.544386436763   -2898.544304573539   -2898.544304195078   0.0000   0.0000   0.0000   0.0000
Elct. dipole 1  -29.485966  Ionic dipole 1   15.564801
   1909    0.000000226043622    0.0    0.06   -2898.530465348726   -2898.544384680154   -2898.544302682432   -2898.544302456389   0.0000   0.0000   0.0000   0.0000
Elct. dipole 1  -29.481565  Ionic dipole 1   15.562234
   1910    0.000000198590846    0.0    0.06   -2898.530465383613   -2898.544383321502   -2898.544301328033   -2898.544301129442   0.0000   0.0000   0.0000   0.0000
Elct. dipole 1  -29.477562  Ionic dipole 1   15.559624
   1911    0.000000272240002    0.0    0.06   -2898.530465358001   -2898.544381971598   -2898.544300117095   -2898.544299844855   0.0000   0.0000   0.0000   0.0000
Elct. dipole 1  -29.473632  Ionic dipole 1   15.557019
   1912    0.000000401011325    0.0    0.06   -2898.530465315210   -2898.544380399281   -2898.544298753515   -2898.544298352504   0.0000   0.0000   0.0000   0.0000
Elct. dipole 1  -29.469541  Ionic dipole 1   15.554457
   1913    0.000000518961220    0.0    0.06   -2898.530465244331   -2898.544378584899   -2898.544297140676   -2898.544296621714   0.0000   0.0000   0.0000   0.0000
Elct. dipole 1  -29.465296  Ionic dipole 1   15.551955
   1914    0.000000570792117    0.0    0.06   -2898.530465289062   -2898.544376907310   -2898.544295609142   -2898.544295038350   0.0000   0.0000   0.0000   0.0000
Elct. dipole 1  -29.461122  Ionic dipole 1   15.549504
   1915    0.000000542661440    0.0    0.06   -2898.530465317089   -2898.544375540770   -2898.544294325420   -2898.544293782759   0.0000   0.0000   0.0000   0.0000
Elct. dipole 1  -29.457302  Ionic dipole 1   15.547078
   1916    0.000000465372034    0.0    0.06   -2898.530465297485   -2898.544374634455   -2898.544293461237   -2898.544292995865   0.0000   0.0000   0.0000   0.0000
Elct. dipole 1  -29.453988  Ionic dipole 1   15.544651
   1917    0.000000386831225    0.0    0.06   -2898.530465211016   -2898.544374117642   -2898.544292981035   -2898.544292594204   0.0000   0.0000   0.0000   0.0000
Elct. dipole 1  -29.451114  Ionic dipole 1   15.542207
   1918    0.000000338837442    0.0    0.06   -2898.530465150573   -2898.544373829787   -2898.544292755502   -2898.544292416665   0.0000   0.0000   0.0000   0.0000
Elct. dipole 1  -29.448424  Ionic dipole 1   15.539745
   1919    0.000000328452063    0.0    0.06   -2898.530465075594   -2898.544373400293   -2898.544292430028   -2898.544292101576   0.0000   0.0000   0.0000   0.0000
Elct. dipole 1  -29.445599  Ionic dipole 1   15.537275
   1920    0.000000348731885    0.0    0.06   -2898.530465045446   -2898.544372628642   -2898.544291801901   -2898.544291453169   0.0000   0.0000   0.0000   0.0000
Elct. dipole 1  -29.442395  Ionic dipole 1   15.534812
   1921    0.000000384854667    0.0    0.06   -2898.530464959699   -2898.544371327658   -2898.544290669127   -2898.544290284273   0.0000   0.0000   0.0000   0.0000
Elct. dipole 1  -29.438738  Ionic dipole 1   15.532370
   1922    0.000000417524828    0.0    0.06   -2898.530464978084   -2898.544369769733   -2898.544289286086   -2898.544288868561   0.0000   0.0000   0.0000   0.0000
Elct. dipole 1  -29.434747  Ionic dipole 1   15.529955
   1923    0.000000433427321    0.0    0.06   -2898.530465019502   -2898.544368131169   -2898.544287815571   -2898.544287382143   0.0000   0.0000   0.0000   0.0000
Elct. dipole 1  -29.430676  Ionic dipole 1   15.527564
   1924    0.000000431075333    0.0    0.06   -2898.530464975788   -2898.544366589346   -2898.544286429596   -2898.544285998521   0.0000   0.0000   0.0000   0.0000
Elct. dipole 1  -29.426803  Ionic dipole 1   15.525189
   1925    0.000000415376113    0.0    0.06   -2898.530464845229   -2898.544365323903   -2898.544285310689   -2898.544284895313   0.0000   0.0000   0.0000   0.0000
Elct. dipole 1  -29.423300  Ionic dipole 1   15.522821
   1926    0.000000393455164    0.0    0.06   -2898.530464812624   -2898.544364509914   -2898.544284642524   -2898.544284249069   0.0000   0.0000   0.0000   0.0000
Elct. dipole 1  -29.420152  Ionic dipole 1   15.520454
   1927    0.000000375166737    0.0    0.06   -2898.530464659970   -2898.544363737900   -2898.544284025519   -2898.544283650353   0.0000   0.0000   0.0000   0.0000
Elct. dipole 1  -29.417166  Ionic dipole 1   15.518088
   1928    0.000000369109086    0.0    0.06   -2898.530464505180   -2898.544362860502   -2898.544283318998   -2898.544282949889   0.0000   0.0000   0.0000   0.0000
Elct. dipole 1  -29.414082  Ionic dipole 1   15.515727
   1929    0.000000375799896    0.0    0.06   -2898.530464316695   -2898.544361655961   -2898.544282302227   -2898.544281926427   0.0000   0.0000   0.0000   0.0000
Elct. dipole 1  -29.410715  Ionic dipole 1   15.513376
   1930    0.000000387980554    0.0    0.06   -2898.530464261760   -2898.544360278701   -2898.544281125511   -2898.544280737530   0.0000   0.0000   0.0000   0.0000
Elct. dipole 1  -29.407057  Ionic dipole 1   15.511040
   1931    0.000000397609744    0.0    0.06   -2898.530464031591   -2898.544358577474   -2898.544279631133   -2898.544279233523   0.0000   0.0000   0.0000   0.0000
Elct. dipole 1  -29.403267  Ionic dipole 1   15.508721
   1932    0.000000400830783    0.0    0.06   -2898.530463933181   -2898.544357081400   -2898.544278342866   -2898.544277942035   0.0000   0.0000   0.0000   0.0000
Elct. dipole 1  -29.399564  Ionic dipole 1   15.506416
   1933    0.000000398010209    0.0    0.06   -2898.530463830698   -2898.544355807661   -2898.544277276098   -2898.544276878088   0.0000   0.0000   0.0000   0.0000
Elct. dipole 1  -29.396098  Ionic dipole 1   15.504121
   1934    0.000000392152653    0.0    0.06   -2898.530463695044   -2898.544354735249   -2898.544276411791   -2898.544276019638   0.0000   0.0000   0.0000   0.0000
Elct. dipole 1  -29.392873  Ionic dipole 1   15.501833
   1935    0.000000386932575    0.0    0.06   -2898.530463559620   -2898.544353780929   -2898.544275670562   -2898.544275283630   0.0000   0.0000   0.0000   0.0000
Elct. dipole 1  -29.389771  Ionic dipole 1   15.499550
   1936    0.000000384385430    0.0    0.06   -2898.530463492438   -2898.544352859771   -2898.544274970622   -2898.544274586236   0.0000   0.0000   0.0000   0.0000
Elct. dipole 1  -29.386642  Ionic dipole 1   15.497274
   1937    0.000000384479593    0.0    0.06   -2898.530463314248   -2898.544351695095   -2898.544274036059   -2898.544273651579   0.0000   0.0000   0.0000   0.0000
Elct. dipole 1  -29.383390  Ionic dipole 1   15.495010
   1938    0.000000386417421    0.0    0.06   -2898.530463150745   -2898.544350410216   -2898.544272988737   -2898.544272602320   0.0000   0.0000   0.0000   0.0000
Elct. dipole 1  -29.380017  Ionic dipole 1   15.492758
   1939    0.000000388900585    0.0    0.06   -2898.530462929940   -2898.544349004351   -2898.544271825727   -2898.544271436826   0.0000   0.0000   0.0000   0.0000
Elct. dipole 1  -29.376594  Ionic dipole 1   15.490519
   1940    0.000000390192732    0.0    0.06   -2898.530462766206   -2898.544347682190   -2898.544270750495   -2898.544270360303   0.0000   0.0000   0.0000   0.0000
Elct. dipole 1  -29.373208  Ionic dipole 1   15.488292
   1941    0.000000389880580    0.0    0.06   -2898.530462619688   -2898.544346465500   -2898.544269785151   -2898.544269395271   0.0000   0.0000   0.0000   0.0000
Elct. dipole 1  -29.369920  Ionic dipole 1   15.486074
   1942    0.000000389753176    0.0    0.06   -2898.530462471305   -2898.544345349046   -2898.544268925749   -2898.544268535996   0.0000   0.0000   0.0000   0.0000
Elct. dipole 1  -29.366741  Ionic dipole 1   15.483863
   1943    0.000000391689386    0.0    0.06   -2898.530462289350   -2898.544344273061   -2898.544268113484   -2898.544267721794   0.0000   0.0000   0.0000   0.0000
Elct. dipole 1  -29.363644  Ionic dipole 1   15.481660
   1944    0.000000395441106    0.0    0.06   -2898.530462100156   -2898.544343212801   -2898.544267323281   -2898.544266927840   0.0000   0.0000   0.0000   0.0000
Elct. dipole 1  -29.360581  Ionic dipole 1   15.479468
   1945    0.000000398955737    0.0    0.06   -2898.530461986538   -2898.544342197604   -2898.544266582899   -2898.544266183943   0.0000   0.0000   0.0000   0.0000
Elct. dipole 1  -29.357499  Ionic dipole 1   15.477288
   1946    0.000000400151460    0.0    0.06   -2898.530461841951   -2898.544341083676   -2898.544265746712   -2898.544265346561   0.0000   0.0000   0.0000   0.0000
Elct. dipole 1  -29.354363  Ionic dipole 1   15.475122
   1947    0.000000398409903    0.0    0.05   -2898.530461694335   -2898.544339891831   -2898.544264834644   -2898.544264436234   0.0000   0.0000   0.0000   0.0000
Elct. dipole 1  -29.351165  Ionic dipole 1   15.472968
   1948    0.000000395022267    0.0    0.05   -2898.530461462336   -2898.544338567563   -2898.544263792798   -2898.544263397775   0.0000   0.0000   0.0000   0.0000
Elct. dipole 1  -29.347929  Ionic dipole 1   15.470824
   1949    0.000000392199330    0.0    0.05   -2898.530461307349   -2898.544337321942   -2898.544262833978   -2898.544262441779   0.0000   0.0000   0.0000   0.0000
Elct. dipole 1  -29.344703  Ionic dipole 1   15.468688
   1950    0.000000391498373    0.0    0.05   -2898.530461065850   -2898.544336040289   -2898.544261845371   -2898.544261453872   0.0000   0.0000   0.0000   0.0000
Elct. dipole 1  -29.341535  Ionic dipole 1   15.466560
   1951    0.000000393319724    0.0    0.05   -2898.530460899590   -2898.544334908073   -2898.544261013408   -2898.544260620088   0.0000   0.0000   0.0000   0.0000
Elct. dipole 1  -29.338449  Ionic dipole 1   15.464440
   1952    0.000000397326100    0.0    0.05   -2898.530460614745   -2898.544333719475   -2898.544260131817   -2898.544259734491   0.0000   0.0000   0.0000   0.0000
Elct. dipole 1  -29.335435  Ionic dipole 1   15.462330
   1953    0.000000402405206    0.0    0.05   -2898.530460392386   -2898.544332617424   -2898.544259341905   -2898.544258939500   0.0000   0.0000   0.0000   0.0000
Elct. dipole 1  -29.332457  Ionic dipole 1   15.460232
   1954    0.000000406573303    0.0    0.05   -2898.530460161767   -2898.544331489871   -2898.544258529643   -2898.544258123070   0.0000   0.0000   0.0000   0.0000
Elct. dipole 1  -29.329475  Ionic dipole 1   15.458147
   1955    0.000000408086987    0.0    0.05   -2898.530459874132   -2898.544330265609   -2898.544257622394   -2898.544257214307   0.0000   0.0000   0.0000   0.0000
Elct. dipole 1  -29.326466  Ionic dipole 1   15.456075
   1956    0.000000406853927    0.0    0.05   -2898.530459667687   -2898.544329087693   -2898.544256762860   -2898.544256356006   0.0000   0.0000   0.0000   0.0000
Elct. dipole 1  -29.323434  Ionic dipole 1   15.454014
   1957    0.000000404311499    0.0    0.05   -2898.530459395600   -2898.544327833754   -2898.544255829393   -2898.544255425081   0.0000   0.0000   0.0000   0.0000
Elct. dipole 1  -29.320401  Ionic dipole 1   15.451963
   1958    0.000000402110416    0.0    0.05   -2898.530459177631   -2898.544326652100   -2898.544254971600   -2898.544254569490   0.0000   0.0000   0.0000   0.0000
Elct. dipole 1  -29.317394  Ionic dipole 1   15.449920
   1959    0.000000401246475    0.0    0.05   -2898.530458957185   -2898.544325503714   -2898.544254151689   -2898.544253750442   0.0000   0.0000   0.0000   0.0000
Elct. dipole 1  -29.314432  Ionic dipole 1   15.447886
   1960    0.000000402068348    0.0    0.05   -2898.530458644151   -2898.544324299291   -2898.544253280946   -2898.544252878878   0.0000   0.0000   0.0000   0.0000
Elct. dipole 1  -29.311516  Ionic dipole 1   15.445861
   1961    0.000000404444754    0.0    0.05   -2898.530458355742   -2898.544323143339   -2898.544252463665   -2898.544252059220   0.0000   0.0000   0.0000   0.0000
Elct. dipole 1  -29.308633  Ionic dipole 1   15.443846
   1962    0.000000407738210    0.0    0.05   -2898.530458098267   -2898.544322023571   -2898.544251686723   -2898.544251278985   0.0000   0.0000   0.0000   0.0000
Elct. dipole 1  -29.305767  Ionic dipole 1   15.441842
   1963    0.000000410939829    0.0    0.05   -2898.530457790006   -2898.544320842567   -2898.544250851653   -2898.544250440713   0.0000   0.0000   0.0000   0.0000
Elct. dipole 1  -29.302902  Ionic dipole 1   15.439850
   1964    0.000000413165262    0.0    0.05   -2898.530457588510   -2898.544319751275   -2898.544250108533   -2898.544249695368   0.0000   0.0000   0.0000   0.0000
Elct. dipole 1  -29.300032  Ionic dipole 1   15.437869
   1965    0.000000414104438    0.0    0.05   -2898.530457380174   -2898.544318640532   -2898.544249347723   -2898.544248933618   0.0000   0.0000   0.0000   0.0000
Elct. dipole 1  -29.297161  Ionic dipole 1   15.435901
   1966    0.000000414010605    0.0    0.05   -2898.530457053168   -2898.544317411038   -2898.544248469860   -2898.544248055849   0.0000   0.0000   0.0000   0.0000
Elct. dipole 1  -29.294300  Ionic dipole 1   15.433942
   1967    0.000000413374465    0.0    0.05   -2898.530456800541   -2898.544316269924   -2898.544247682307   -2898.544247268932   0.0000   0.0000   0.0000   0.0000
Elct. dipole 1  -29.291463  Ionic dipole 1   15.431994
   1968    0.000000412676563    0.0    0.05   -2898.530456575076   -2898.544315178484   -2898.544246946731   -2898.544246534055   0.0000   0.0000   0.0000   0.0000
Elct. dipole 1  -29.288659  Ionic dipole 1   15.430055
   1969    0.000000412328853    0.0    0.05   -2898.530456163593   -2898.544313922640   -2898.544246049431   -2898.544245637102   0.0000   0.0000   0.0000   0.0000
Elct. dipole 1  -29.285885  Ionic dipole 1   15.428125
   1970    0.000000412666066    0.0    0.05   -2898.530455863109   -2898.544312790645   -2898.544245278934   -2898.544244866268   0.0000   0.0000   0.0000   0.0000
Elct. dipole 1  -29.283133  Ionic dipole 1   15.426205
   1971    0.000000413853922    0.0    0.05   -2898.530455561954   -2898.544311660113   -2898.544244512924   -2898.544244099071   0.0000   0.0000   0.0000   0.0000
Elct. dipole 1  -29.280394  Ionic dipole 1   15.424296
   1972    0.000000415758730    0.0    0.05   -2898.530455308809   -2898.544310573492   -2898.544243793654   -2898.544243377895   0.0000   0.0000   0.0000   0.0000
Elct. dipole 1  -29.277661  Ionic dipole 1   15.422396
   1973    0.000000417949985    0.0    0.05   -2898.530454995092   -2898.544309423440   -2898.544243013325   -2898.544242595375   0.0000   0.0000   0.0000   0.0000
Elct. dipole 1  -29.274937  Ionic dipole 1   15.420508
   1974    0.000000419894088    0.0    0.05   -2898.530454650601   -2898.544308246452   -2898.544242207831   -2898.544241787937   0.0000   0.0000   0.0000   0.0000
Elct. dipole 1  -29.272228  Ionic dipole 1   15.418632
   1975    0.000000421195085    0.0    0.05   -2898.530454332909   -2898.544307107170   -2898.544241441246   -2898.544241020051   0.0000   0.0000   0.0000   0.0000
Elct. dipole 1  -29.269540  Ionic dipole 1   15.416766
   1976    0.000000421724505    0.0    0.05   -2898.530454043852   -2898.544306010295   -2898.544240717927   -2898.544240296202   0.0000   0.0000   0.0000   0.0000
Elct. dipole 1  -29.266877  Ionic dipole 1   15.414911
   1977    0.000000421631969    0.0    0.05   -2898.530453728395   -2898.544304898205   -2898.544239980221   -2898.544239558589   0.0000   0.0000   0.0000   0.0000
Elct. dipole 1  -29.264236  Ionic dipole 1   15.413066
   1978    0.000000421284345    0.0    0.05   -2898.530453385235   -2898.544303763960   -2898.544239221422   -2898.544238800137   0.0000   0.0000   0.0000   0.0000
Elct. dipole 1  -29.261609  Ionic dipole 1   15.411230
   1979    0.000000421130790    0.0    0.05   -2898.530453148430   -2898.544302736825   -2898.544238571131   -2898.544238150000   0.0000   0.0000   0.0000   0.0000
Elct. dipole 1  -29.258993  Ionic dipole 1   15.409404
   1980    0.000000421505179    0.0    0.05   -2898.530452855409   -2898.544301653141   -2898.544237865929   -2898.544237444423   0.0000   0.0000   0.0000   0.0000
Elct. dipole 1  -29.256386  Ionic dipole 1   15.407588
   1981    0.000000422482272    0.0    0.05   -2898.530452559539   -2898.544300569132   -2898.544237162057   -2898.544236739575   0.0000   0.0000   0.0000   0.0000
Elct. dipole 1  -29.253792  Ionic dipole 1   15.405782
   1982    0.000000423887923    0.0    0.05   -2898.530452289003   -2898.544299517696   -2898.544236492186   -2898.544236068299   0.0000   0.0000   0.0000   0.0000
Elct. dipole 1  -29.251216  Ionic dipole 1   15.403987
   1983    0.000000425419927    0.0    0.05   -2898.530451990629   -2898.544298449359   -2898.544235806456   -2898.544235381036   0.0000   0.0000   0.0000   0.0000
Elct. dipole 1  -29.248662  Ionic dipole 1   15.402203
   1984    0.000000426777449    0.0    0.05   -2898.530451719965   -2898.544297420451   -2898.544235160771   -2898.544234733994   0.0000   0.0000   0.0000   0.0000
Elct. dipole 1  -29.246130  Ionic dipole 1   15.400429
   1985    0.000000427753964    0.0    0.05   -2898.530451315862   -2898.544296267693   -2898.544234391506   -2898.544233963752   0.0000   0.0000   0.0000   0.0000
Elct. dipole 1  -29.243618  Ionic dipole 1   15.398666
   1986    0.000000428288699    0.0    0.04   -2898.530451075251   -2898.544295284640   -2898.544233792002   -2898.544233363713   0.0000   0.0000   0.0000   0.0000
Elct. dipole 1  -29.241122  Ionic dipole 1   15.396913
   1987    0.000000428471810    0.0    0.04   -2898.530450763792   -2898.544294234478   -2898.544233125400   -2898.544232696928   0.0000   0.0000   0.0000   0.0000
Elct. dipole 1  -29.238640  Ionic dipole 1   15.395169
   1988    0.000000428496521    0.0    0.04   -2898.530450466971   -2898.544293204605   -2898.544232479164   -2898.544232050667   0.0000   0.0000   0.0000   0.0000
Elct. dipole 1  -29.236174  Ionic dipole 1   15.393436
   1989    0.000000428597270    0.0    0.04   -2898.530450162674   -2898.544292172747   -2898.544231831134   -2898.544231402537   0.0000   0.0000   0.0000   0.0000
Elct. dipole 1  -29.233723  Ionic dipole 1   15.391713
   1990    0.000000428982076    0.0    0.04   -2898.530449890955   -2898.544291179703   -2898.544231222222   -2898.544230793239   0.0000   0.0000   0.0000   0.0000
Elct. dipole 1  -29.231288  Ionic dipole 1   15.389999
   1991    0.000000429750564    0.0    0.04   -2898.530449618979   -2898.544290193270   -2898.544230620245   -2898.544230190495   0.0000   0.0000   0.0000   0.0000
Elct. dipole 1  -29.228870  Ionic dipole 1   15.388296
   1992    0.000000430846657    0.0    0.04   -2898.530449269350   -2898.544289136764   -2898.544229948388   -2898.544229517541   0.0000   0.0000   0.0000   0.0000
Elct. dipole 1  -29.226471  Ionic dipole 1   15.386603
   1993    0.000000432068468    0.0    0.04   -2898.530448947808   -2898.544288116165   -2898.544229312337   -2898.544228880268   0.0000   0.0000   0.0000   0.0000
Elct. dipole 1  -29.224089  Ionic dipole 1   15.384920
   1994    0.000000433141487    0.0    0.04   -2898.530448652997   -2898.544287129934   -2898.544228710171   -2898.544228277029   0.0000   0.0000   0.0000   0.0000
Elct. dipole 1  -29.221725  Ionic dipole 1   15.383248
   1995    0.000000433839658    0.0    0.04   -2898.530448383589   -2898.544286176351   -2898.544228139818   -2898.544227705979   0.0000   0.0000   0.0000   0.0000
Elct. dipole 1  -29.219378  Ionic dipole 1   15.381586
   1996    0.000000434106419    0.0    0.04   -2898.530448069448   -2898.544285184970   -2898.544227530643   -2898.544227096536   0.0000   0.0000   0.0000   0.0000
Elct. dipole 1  -29.217049  Ionic dipole 1   15.379933
   1997    0.000000434084125    0.0    0.04   -2898.530447801304   -2898.544284248414   -2898.544226975273   -2898.544226541189   0.0000   0.0000   0.0000   0.0000
Elct. dipole 1  -29.214738  Ionic dipole 1   15.378291
   1998    0.000000434043242    0.0    0.04   -2898.530447530941   -2898.544283316106   -2898.544226423280   -2898.544225989237   0.0000   0.0000   0.0000   0.0000
Elct. dipole 1  -29.212443  Ionic dipole 1   15.376658
   1999    0.000000434256091    0.0    0.04   -2898.530447296135   -2898.544282423571   -2898.544225910364   -2898.544225476108   0.0000   0.0000   0.0000   0.0000
Elct. dipole 1  -29.210163  Ionic dipole 1   15.375035

 * Physical Quantities at step:  2000

   from rhoofr: total integrated electronic density
   in g-space =   1236.000000   in r-space =  1236.000000
     Total Electronic Pressure (GPa)       41.05982   2000
     Pressure of Nuclei (GPa)             0.00006   2000
     Pressure Total (GPa)             0.05071   2000


                total energy =    -2898.53044706088 Hartree a.u.
              kinetic energy =     1316.43552 Hartree a.u.
        electrostatic energy =    -3924.26995 Hartree a.u.
                         esr =        0.00000 Hartree a.u.
                       eself =     5562.85116 Hartree a.u.
      pseudopotential energy =      261.77504 Hartree a.u.
  n-l pseudopotential energy =      193.28254 Hartree a.u.
 exchange-correlation energy =     -745.76742 Hartree a.u.
           average potential =        0.00000 Hartree a.u.



   Eigenvalues (eV), kp =   1 , spin =  1

  -12.76  -12.59  -12.51  -12.50  -12.40  -12.40  -12.39  -12.31  -12.27  -12.26
  -12.26  -12.25  -12.19  -12.19  -12.18  -12.15  -12.14  -12.10  -12.09  -12.06
  -12.04  -12.04  -12.01  -11.97  -11.97  -11.97  -11.97  -11.93  -11.89  -11.84
  -11.83  -11.83  -11.81  -11.79  -11.79  -11.77  -11.74  -11.74  -11.73  -11.71
  -11.70  -11.69  -11.68  -11.68  -11.67  -11.67  -11.66  -11.65  -11.65  -11.63
  -11.62  -11.60  -11.59  -11.59  -11.58  -11.57  -11.56  -11.56  -11.56  -11.55
  -11.55  -11.55  -11.54  -11.53  -11.53  -11.52  -11.52  -11.52  -11.51  -11.51
  -11.51  -11.51  -11.50  -11.48  -11.48  -11.48  -11.47  -11.47  -11.45  -11.45
  -11.44  -11.44  -11.44  -11.43  -11.42  -11.42  -11.41  -11.41  -11.40  -11.40
  -11.40  -11.40  -11.39  -11.39  -11.39  -11.38  -11.38  -11.38  -11.37  -11.36
  -11.36  -11.36  -11.36  -11.35  -11.35  -11.34  -11.34  -11.33  -11.31  -11.28
  -11.27  -11.26  -11.26  -11.26  -11.25  -11.25  -11.25  -11.24  -11.24  -11.23
  -11.22  -11.22  -11.22  -11.22  -11.21  -11.18  -11.17  -11.15  -11.15  -11.15
  -11.14  -11.13  -11.12  -11.12  -11.11  -11.11  -11.11  -11.03   -1.25   -0.87
   -0.82   -0.76   -0.72   -0.72   -0.66   -0.59   -0.55   -0.53   -0.51   -0.48
   -0.38   -0.34   -0.33   -0.31   -0.27   -0.26   -0.24   -0.21   -0.20   -0.20
   -0.15   -0.15   -0.15   -0.14   -0.14   -0.12   -0.09   -0.08   -0.07   -0.07
   -0.07   -0.05   -0.04   -0.03   -0.02    0.01    0.02    0.02    0.03    0.04
    0.05    0.06    0.08    0.08    0.09    0.11    0.11    0.11    0.12    0.12
    0.13    0.14    0.14    0.16    0.17    0.18    0.19    0.21    0.24    0.24
    0.24    0.25    0.25    0.27    0.28    0.32    0.32    0.37    0.37    0.38
    0.38    0.39    0.40    0.41    0.41    0.43    0.44    0.45    0.45    0.47
    0.47    0.48    0.49    0.49    0.50    0.53    0.53    0.53    0.53    0.54
    0.54    0.56    0.57    0.57    0.57    0.57    0.57    0.59    0.60    0.60
    0.61    0.62    0.62    0.63    0.63    0.64    0.65    0.65    0.66    0.67
    0.67    0.68    0.69    0.71    0.72    0.73    0.74    0.74    0.76    0.76
    0.77    0.79    0.79    0.79    0.80    0.81    0.81    0.82    0.84    0.87
    0.89    0.89    0.90    0.90    0.92    0.92    0.93    0.94    0.94    0.95
    0.97    0.98    0.99    1.03    1.04    1.06    1.08    1.09    1.10    1.10
    1.13    1.14    1.15    1.16    1.17    1.20    1.23    1.26    1.26    1.31
    1.32    1.32    1.35    1.36    1.38    1.46    1.48    1.48    1.48    1.50
    1.52    1.53    1.54    1.55    1.57    1.58    1.59    1.59    1.63    1.63
    1.65    1.66    1.69    1.69    1.73    1.74    1.76    1.76    1.78    1.79
    1.79    1.80    1.80    1.84    1.84    1.85    1.86    1.88    1.88    1.90
    1.90    1.92    1.93    1.97    1.97    1.98    1.98    2.01    2.05    2.07
    2.11    2.13    2.13    2.14    2.17    2.17    2.17    2.18    2.20    2.20
    2.22    2.22    2.22    2.23    2.24    2.27    2.27    2.27    2.28    2.33
    2.34    2.35    2.35    2.36    2.37    2.37    2.38    2.40    2.41    2.42
    2.43    2.44    2.44    2.45    2.45    2.45    2.48    2.48    2.50    2.50
    2.51    2.51    2.52    2.53    2.54    2.54    2.55    2.55    2.56    2.57
    2.57    2.57    2.59    2.61    2.62    2.62    2.62    2.62    2.64    2.65
    2.66    2.66    2.66    2.66    2.67    2.68    2.68    2.69    2.69    2.70
    2.70    2.71    2.73    2.73    2.74    2.75    2.77    2.77    2.78    2.79
    2.80    2.80    2.81    2.82    2.83    2.85    2.85    2.86    2.87    2.90
    2.90    2.91    2.91    2.91    2.93    2.93    2.94    2.95    2.96    2.97
    2.98    2.98    3.00    3.01    3.01    3.01    3.01    3.02    3.03    3.04
    3.04    3.05    3.05    3.07    3.07    3.08    3.08    3.09    3.10    3.10
    3.10    3.10    3.11    3.12    3.12    3.13    3.13    3.14    3.15    3.15
    3.17    3.18    3.18    3.18    3.19    3.19    3.20    3.20    3.21    3.21
    3.23    3.23    3.23    3.23    3.23    3.24    3.26    3.26    3.27    3.27
    3.27    3.28    3.29    3.29    3.29    3.29    3.30    3.31    3.32    3.32
    3.32    3.33    3.34    3.34    3.35    3.36    3.36    3.37    3.38    3.38
    3.39    3.40    3.41    3.41    3.41    3.42    3.44    3.44    3.44    3.46
    3.46    3.47    3.47    3.48    3.49    3.49    3.50    3.50    3.51    3.51
    3.52    3.53    3.53    3.53    3.54    3.54    3.55    3.57    3.58    3.59
    3.59    3.59    3.59    3.60    3.62    3.62    3.63    3.64    3.65    3.65
    3.65    3.65    3.65    3.66    3.67    3.68    3.68    3.69    3.72    3.72
    3.74    3.74    3.75    3.75    3.76    3.78    3.79    3.79    3.80    3.81
    3.84    3.85    3.85    3.86    3.87    3.87    3.89    3.90    3.91    3.92
    3.92    3.93    3.93    3.93    3.95    3.97    3.98    3.98    4.00    4.04
    4.05    4.05    4.16    4.18    4.19    4.37    4.39    4.41    4.45    4.50
    4.51    4.60    4.60    4.79    6.03    6.05    6.27    6.66
 
 
   CELL_PARAMETERS
   24.54239043    0.00076274    0.00000017
    0.00076273   24.54229147    0.00000114
    0.00000023    0.00000151   32.45460242

   System Density [g/cm^3] :              3.9303362633


   System Volume [A.U.^3] :          19548.2670367029


   Center of mass square displacement (a.u.):   0.000000

   Total stress (GPa)
       -0.01102748         0.02199867         0.00014511
        0.02199867        -0.01099686         0.00010684
        0.00014511         0.00010684         0.17415763
   ATOMIC_POSITIONS
   Ag      0.21331433344111E+01     0.13896522599719E+02     0.18310255790716E+02
   Ag      0.55985434560684E+01     0.10430681762919E+02     0.18310287499403E+02
   Ag      0.67400191573046E+01     0.15037411742124E+02     0.18682240700710E+02
   Ag      0.99164428134105E+00     0.92897341709413E+01     0.18682042963617E+02
   Ag      0.21508082606758E+01     0.10448794517468E+02     0.14107759510750E+02
   Ag      0.21284928310533E+01     0.13900513687195E+02     0.99181212923162E+01
   Ag      0.56024135985180E+01     0.10426071683846E+02     0.99179618681662E+01
   Ag      0.67229248438051E+01     0.15020332978623E+02     0.95067760708669E+01
   Ag      0.69441078259621E+01     0.90862385203020E+01     0.14123819155291E+02
   Ag      0.78830035718875E+00     0.15242109583868E+02     0.14123915226952E+02
   Ag      0.55812248990597E+01     0.13879043336805E+02     0.14107690634069E+02
   Ag      0.10079435464047E+01     0.93061687082271E+01     0.95073132026537E+01
   Mg      0.22239722836172E+02     0.22391960360665E+02     0.26231503344548E+02
   Mg      0.22237869443355E+02     0.18334252786817E+02     0.30262780610780E+02
   Mg      0.18172566855234E+02     0.22399739251990E+02     0.30248598943018E+02
   Mg      0.18180476818785E+02     0.18332529648425E+02     0.26231551426039E+02
   Mg      0.22166461562118E+02     0.22440517173981E+02     0.18152427264942E+02
   Mg      0.22276847436805E+02     0.18295663416230E+02     0.22173833308629E+02
   Mg      0.18174667940638E+02     0.22398063020801E+02     0.22209288928235E+02
   Mg      0.18132309617260E+02     0.18406727188979E+02     0.18152436883478E+02
   Mg      0.22171453346073E+02     0.22438368349746E+02     0.98826275530306E+01
   Mg      0.21967175790136E+02     0.18605245777008E+02     0.13990144791092E+02
   Mg      0.18113373815505E+02     0.22459814165013E+02     0.14020411838022E+02
   Mg      0.18134285583782E+02     0.18401651386755E+02     0.98825849748916E+01
   Mg      0.22240246110585E+02     0.22394881455533E+02     0.18207972659466E+01
   Mg      0.22275457668877E+02     0.18296895767929E+02     0.58725591265559E+01
   Mg      0.18173761834789E+02     0.22398833428463E+02     0.58297964874034E+01
   Mg      0.18177457920706E+02     0.18331878758666E+02     0.18207751733482E+01
   Mg      0.22177430924441E+02     0.14235881521513E+02     0.26326380303904E+02
   Mg      0.22176807605064E+02     0.10095470245612E+02     0.30265787351148E+02
   Mg      0.18154942569465E+02     0.14230165625784E+02     0.30262423284851E+02
   Mg      0.18144368665912E+02     0.10094253806367E+02     0.26269254485717E+02
   Mg      0.21812095407632E+02     0.14180577382046E+02     0.18088708648839E+02
   Mg      0.22139391118694E+02     0.10148014328717E+02     0.22329593775378E+02
   Mg      0.18143557964355E+02     0.14236538639854E+02     0.22268312737611E+02
   Mg      0.17986178105980E+02     0.10009382918174E+02     0.18208957961412E+02
   Mg      0.21829444260189E+02     0.14184605808435E+02     0.99268300489176E+01
   Mg      0.21786856532939E+02     0.10131587393216E+02     0.13985163444999E+02
   Mg      0.17916978602203E+02     0.14328688221816E+02     0.14035612468560E+02
   Mg      0.17967232906455E+02     0.10022488255140E+02     0.98396842262806E+01
   Mg      0.22191384062649E+02     0.14230799804180E+02     0.17672564241769E+01
   Mg      0.22160102963374E+02     0.10135949652236E+02     0.57646140817647E+01
   Mg      0.18141894688567E+02     0.14230169762096E+02     0.57724951139611E+01
   Mg      0.18148414751573E+02     0.10094761242639E+02     0.17874168659311E+01
   Mg      0.22239234541753E+02     0.59953197510455E+01     0.26250632715749E+02
   Mg      0.22239083652763E+02     0.19215022528299E+01     0.30256102772208E+02
   Mg      0.18165459172575E+02     0.59951687367652E+01     0.30256106720862E+02
   Mg      0.18171920158851E+02     0.19279551106480E+01     0.26235163796698E+02
   Mg      0.22076518908668E+02     0.58327070887992E+01     0.18074120366647E+02
   Mg      0.22232791218019E+02     0.19187928875253E+01     0.22212680039841E+02
   Mg      0.18162627675322E+02     0.59888904326624E+01     0.22212684859180E+02
   Mg      0.18137870060515E+02     0.18939486566068E+01     0.18144417608467E+02
   Mg      0.22071375242774E+02     0.58275838384083E+01     0.99281415641130E+01
   Mg      0.22163445886035E+02     0.18873067720332E+01     0.14009601980746E+02
   Mg      0.18131149567266E+02     0.59194063551657E+01     0.14009604866067E+02
   Mg      0.18133019610649E+02     0.18891075878422E+01     0.98880561936026E+01
   Mg      0.22238729631452E+02     0.59947509783277E+01     0.18209601385638E+01
   Mg      0.22241536539119E+02     0.19129571504802E+01     0.58331703163791E+01
   Mg      0.18156789923133E+02     0.59975395447534E+01     0.58331548107881E+01
   Mg      0.18168002262793E+02     0.19240175190556E+01     0.18192533700943E+01
   Mg      0.14102238118313E+02     0.22399736224811E+02     0.26235209870779E+02
   Mg      0.14108555587990E+02     0.18332266003397E+02     0.30256109103880E+02
   Mg      0.10034779927244E+02     0.22406066444166E+02     0.30256099784473E+02
   Mg      0.10034716467051E+02     0.18332277350624E+02     0.26250710978661E+02
   Mg      0.14136789925406E+02     0.22434398916912E+02     0.18144473806679E+02
   Mg      0.14111718741399E+02     0.18339106898314E+02     0.22212803859163E+02
   Mg      0.10041546642921E+02     0.22409246405734E+02     0.22212813961033E+02
   Mg      0.10197922780476E+02     0.18495485504962E+02     0.18074436333872E+02
   Mg      0.14141509440449E+02     0.22439135633629E+02     0.98880251585218E+01
   Mg      0.14143254719867E+02     0.18409025162709E+02     0.14009601055963E+02
   Mg      0.10111412589257E+02     0.22440907548780E+02     0.14009615932673E+02
   Mg      0.10202630310579E+02     0.18500238024218E+02     0.99279467569291E+01
   Mg      0.14106047579533E+02     0.22403536313807E+02     0.18192240207735E+01
   Mg      0.14117289283217E+02     0.18330167233185E+02     0.58330790015476E+01
   Mg      0.10032579761752E+02     0.22414789739924E+02     0.58330562289233E+01
   Mg      0.10035078900587E+02     0.18332647939451E+02     0.18208428154807E+01
   Mg      0.14129681224560E+02     0.14233144427283E+02     0.26269300108727E+02
   Mg      0.14118947073876E+02     0.10096963767250E+02     0.30262418481884E+02
   Mg      0.10096868433631E+02     0.14231687751942E+02     0.30265758409666E+02
   Mg      0.10096427627007E+02     0.10091525566722E+02     0.26326348766004E+02
   Mg      0.14288185438358E+02     0.14318903247626E+02     0.18208980390412E+02
   Mg      0.14130644718031E+02     0.10091292345524E+02     0.22268318635870E+02
   Mg      0.10134751732485E+02     0.14179788587348E+02     0.22329658039279E+02
   Mg      0.10462049851494E+02     0.10147993206783E+02     0.18088752252507E+02
   Mg      0.14306505363156E+02     0.14305650011475E+02     0.98397393326411E+01
   Mg      0.14357414701804E+02     0.99997621827894E+01     0.14035690074346E+02
   Mg      0.10487522991223E+02     0.14197059450382E+02     0.13985374194382E+02
   Mg      0.10444231017208E+02     0.10143698994764E+02     0.99269453623298E+01
   Mg      0.14125432791605E+02     0.14232443361190E+02     0.17873635447817E+01
   Mg      0.14131922711995E+02     0.10097353412836E+02     0.57724602303276E+01
   Mg      0.10113656774027E+02     0.14191513009014E+02     0.57645112474635E+01
   Mg      0.10082265878364E+02     0.10096378169482E+02     0.17672110881574E+01
   Mg      0.14093617866621E+02     0.59950820597524E+01     0.26231519958642E+02
   Mg      0.14101476895618E+02     0.19278141228486E+01     0.30248582735423E+02
   Mg      0.10035893074294E+02     0.59931629746053E+01     0.30262770138545E+02
   Mg      0.10034257631418E+02     0.19357212762949E+01     0.26231549803039E+02
   Mg      0.14141974701365E+02     0.59216951870498E+01     0.18152420100147E+02
   Mg      0.14099705553568E+02     0.19299727713265E+01     0.22209282779093E+02
   Mg      0.99972757674954E+01     0.60321386265433E+01     0.22173878450973E+02
   Mg      0.10108277589727E+02     0.18875580668973E+01     0.18152466136178E+02
   Mg      0.14139781489248E+02     0.59266295784436E+01     0.98826122577887E+01
   Mg      0.14161345087969E+02     0.18686956889430E+01     0.14020432251490E+02
   Mg      0.10306719456735E+02     0.57226421228532E+01     0.13990176549202E+02
   Mg      0.10103181570054E+02     0.18894955410085E+01     0.98825971175716E+01
   Mg      0.14096502020396E+02     0.59955377631191E+01     0.18207693834801E+01
   Mg      0.14100468021075E+02     0.19289667203944E+01     0.58297830531198E+01
   Mg      0.99984685766446E+01     0.60306531063933E+01     0.58725041740463E+01
   Mg      0.10033605395181E+02     0.19326748144606E+01     0.18207379687119E+01
   Mg      0.59355551537470E+01     0.22427267635093E+02     0.26269265043660E+02
   Mg      0.59340521772940E+01     0.18394553309351E+02     0.30265741345346E+02
   Mg      0.17992411653456E+01     0.22416607010748E+02     0.30262392816981E+02
   Mg      0.17938311761810E+01     0.18394069254502E+02     0.26326325381258E+02
   Mg      0.60212827538293E+01     0.22585733372335E+02     0.18209006618892E+02
   Mg      0.58821452299133E+01     0.18432321156279E+02     0.22329595699498E+02
   Mg      0.17935593539577E+01     0.22428319059618E+02     0.22268295461092E+02
   Mg      0.18504357574563E+01     0.18759860014933E+02     0.18088697613173E+02
   Mg      0.60080240844809E+01     0.22604050566992E+02     0.98397608658285E+01
   Mg      0.58997280311578E+01     0.18785164129940E+02     0.13985385827200E+02
   Mg      0.17021301195818E+01     0.22655095871218E+02     0.14035704068936E+02
   Mg      0.18461318188730E+01     0.18742116344197E+02     0.99269682254064E+01
   Mg      0.59348286466408E+01     0.22423052994698E+02     0.17873472514803E+01
   Mg      0.58938198605606E+01     0.18411262262765E+02     0.57645337196853E+01
   Mg      0.17996675241927E+01     0.22429699939206E+02     0.57724718622945E+01
   Mg      0.17987028306983E+01     0.18379989650423E+02     0.17672427528557E+01
   Mg      0.59968052882612E+01     0.14294495194706E+02     0.26483650085420E+02
   Mg      0.59688146993489E+01     0.10059892653181E+02     0.30281894364884E+02
   Mg      0.17622659089745E+01     0.14266492157592E+02     0.30281917797492E+02
   Mg      0.17344066578217E+01     0.10032047433488E+02     0.26483639334725E+02
   Mg      0.59082775294783E+01     0.10120943633669E+02     0.22811422313043E+02
   Mg      0.18232091863831E+01     0.14205818129526E+02     0.22811411069970E+02
   Mg      0.59947828319424E+01     0.14292516854289E+02     0.16116635121904E+01
   Mg      0.58968999976740E+01     0.10132069341187E+02     0.53559931209765E+01
   Mg      0.18343876508307E+01     0.14194401312901E+02     0.53560674831327E+01
   Mg      0.17362768907236E+01     0.10033861326626E+02     0.16117771791749E+01
   Mg      0.59375040250922E+01     0.59326792641963E+01     0.26326364186913E+02
   Mg      0.59318123778147E+01     0.19101827326250E+01     0.30262389039377E+02
   Mg      0.17970167217868E+01     0.59320464203071E+01     0.30265755075023E+02
   Mg      0.17957415129520E+01     0.18996861979373E+01     0.26269202276825E+02
   Mg      0.58822337220287E+01     0.55674020126600E+01     0.18088691524074E+02
   Mg      0.59381427704770E+01     0.18988653541918E+01     0.22268315483371E+02
   Mg      0.18495557000279E+01     0.58948662062729E+01     0.22329510207100E+02
   Mg      0.17110209223107E+01     0.17417337045423E+01     0.18208969230015E+02
   Mg      0.58863232247129E+01     0.55847323750886E+01     0.99268594109127E+01
   Mg      0.60302989509864E+01     0.16723165968890E+01     0.14035622687474E+02
   Mg      0.18332066666500E+01     0.55423424528926E+01     0.13985182374656E+02
   Mg      0.17241804006507E+01     0.17228565953202E+01     0.98396891170542E+01
   Mg      0.59324169691309E+01     0.59465755498111E+01     0.17672225234929E+01
   Mg      0.59318320199107E+01     0.18971468246900E+01     0.57724809841638E+01
   Mg      0.18376228088660E+01     0.59155562187446E+01     0.57646984220507E+01
   Mg      0.17963230278451E+01     0.19037558053864E+01     0.17874279369514E+01
   O       0.18172136005051E+02     0.18326455043646E+02     0.30207184524346E+02
   O       0.18174660886849E+02     0.22397698661888E+02     0.26189375117924E+02
   O       0.22255847501601E+02     0.18316541239356E+02     0.26195664515332E+02
   O       0.22245599003004E+02     0.22400118708566E+02     0.30207172492239E+02
   O       0.18182148243571E+02     0.18327134264965E+02     0.22164277264478E+02
   O       0.18150369818951E+02     0.22423049108899E+02     0.18102694092157E+02
   O       0.22180602741699E+02     0.18392033048280E+02     0.18046093284320E+02
   O       0.22245571367027E+02     0.22390430582986E+02     0.22164133981054E+02
   O       0.18086066607253E+02     0.18446175800805E+02     0.13987545611560E+02
   O       0.18148074367553E+02     0.22425241970465E+02     0.98724802554267E+01
   O       0.22167295056258E+02     0.18405477455803E+02     0.99207240886288E+01
   O       0.22127597199443E+02     0.22486499286085E+02     0.13987616676683E+02
   O       0.18176598495330E+02     0.18340890462076E+02     0.58030494760256E+01
   O       0.18171802013693E+02     0.22400482470184E+02     0.17700675039751E+01
   O       0.22245919584456E+02     0.18326207630574E+02     0.17719576694164E+01
   O       0.22231475804680E+02     0.22395826297978E+02     0.58031824608718E+01
   O       0.18144038832541E+02     0.10100010767150E+02     0.30214941876590E+02
   O       0.18165584318452E+02     0.14226479132293E+02     0.26224750529608E+02
   O       0.22188164440216E+02     0.10105110007272E+02     0.26276975139549E+02
   O       0.22199832057632E+02     0.14225217954259E+02     0.30234331189456E+02
   O       0.18133887966465E+02     0.10100818875573E+02     0.22238643016125E+02
   O       0.18041599205962E+02     0.14311733952993E+02     0.18180038309552E+02
   O       0.21648258710469E+02     0.10154213378119E+02     0.18024829893308E+02
   O       0.22213493575675E+02     0.14210377681194E+02     0.22226671999503E+02
   O       0.18022894033429E+02     0.99831074261024E+01     0.13969583667386E+02
   O       0.18050127273812E+02     0.14318751951469E+02     0.97764662753426E+01
   O       0.21621569558108E+02     0.10135525457187E+02     0.98698668448460E+01
   O       0.21503705366309E+02     0.14120915206081E+02     0.13952276632039E+02
   O       0.18122293900016E+02     0.10091500833424E+02     0.57312584548438E+01
   O       0.18157780338230E+02     0.14230181543393E+02     0.17490068645972E+01
   O       0.22181212907311E+02     0.10097634744914E+02     0.17226697874460E+01
   O       0.22178312467722E+02     0.14222195805250E+02     0.57358143767148E+01
   O       0.18170469957693E+02     0.19264404862989E+01     0.30206804564765E+02
   O       0.18172443146575E+02     0.60010842697690E+01     0.26189005377582E+02
   O       0.22244846657044E+02     0.19284539937507E+01     0.26189003865731E+02
   O       0.22240506109435E+02     0.59965867091251E+01     0.30214933398984E+02
   O       0.18169853738712E+02     0.19258389596785E+01     0.22167134215303E+02
   O       0.18120912326157E+02     0.59115511106119E+01     0.18101500408823E+02
   O       0.22155670491166E+02     0.18771833808839E+01     0.18101473949846E+02
   O       0.22261963607138E+02     0.60181997316817E+01     0.22134713393162E+02
   O       0.18151018535039E+02     0.19069949916621E+01     0.13990307333399E+02
   O       0.18113370479484E+02     0.59008703828427E+01     0.98692702666482E+01
   O       0.22144999808624E+02     0.18697050458773E+01     0.98693147873862E+01
   O       0.22186176904675E+02     0.59422823642653E+01     0.13978088650942E+02
   O       0.18164513883527E+02     0.19204963809283E+01     0.57997516539753E+01
   O       0.18167137763457E+02     0.59942255435947E+01     0.17744060485063E+01
   O       0.22238155177550E+02     0.19231413580517E+01     0.17744101091682E+01
   O       0.22237815572680E+02     0.59939383129103E+01     0.58297861610507E+01
   O       0.10033325460938E+02     0.18330793133231E+02     0.30214958143477E+02
   O       0.10029072938615E+02     0.22399094376656E+02     0.26189144425958E+02
   O       0.14101573111407E+02     0.18326493832231E+02     0.26189141092116E+02
   O       0.14103514794819E+02     0.22400997659390E+02     0.30206831580974E+02
   O       0.10012593634502E+02     0.18310085880239E+02     0.22135140979420E+02
   O       0.10119217468391E+02     0.22451259928829E+02     0.18101671411610E+02
   O       0.14153741304656E+02     0.18416857241140E+02     0.18101602330142E+02
   O       0.14104657815513E+02     0.22402188882127E+02     0.22167214353318E+02
   O       0.10087996424566E+02     0.18385609607195E+02     0.13978124818069E+02
   O       0.10129765611728E+02     0.22458432335178E+02     0.98690991268427E+01
   O       0.14160921174379E+02     0.18427523564792E+02     0.98691464442895E+01
   O       0.14123807952490E+02     0.22421545874894E+02     0.13990318913496E+02
   O       0.10036264375394E+02     0.18333678018266E+02     0.58294130200249E+01
   O       0.10035692603300E+02     0.22404321324535E+02     0.17743235031540E+01
   O       0.14106819556529E+02     0.18333104544526E+02     0.17743360799230E+01
   O       0.14109866000598E+02     0.22407367262706E+02     0.57996679327404E+01
   O       0.10073482720289E+02     0.10101712246738E+02     0.30234312137476E+02
   O       0.10085379996261E+02     0.14222020276895E+02     0.26277060106101E+02
   O       0.14108462913575E+02     0.10100689231583E+02     0.26224709748455E+02
   O       0.14129998546609E+02     0.14226843028148E+02     0.30214941070104E+02
   O       0.10060171374925E+02     0.10117315352967E+02     0.22226565537198E+02
   O       0.10626176666741E+02     0.14174906132353E+02     0.18025276605449E+02
   O       0.14232510957374E+02     0.10017112186741E+02     0.18180148453947E+02
   O       0.14140579777884E+02     0.14226585434427E+02     0.22238868815097E+02
   O       0.10770975345597E+02     0.10208099862585E+02     0.13952462601819E+02
   O       0.10652012460962E+02     0.14193077178348E+02     0.98697377341168E+01
   O       0.14223502278630E+02     0.10009974067158E+02     0.97763714989511E+01
   O       0.14251429782979E+02     0.14345534296736E+02     0.13969564449617E+02
   O       0.10095091664084E+02     0.10105057660392E+02     0.57358062675438E+01
   O       0.10092236528052E+02     0.14229273890011E+02     0.17225579083335E+01
   O       0.14116103939842E+02     0.10096765921148E+02     0.17490252341766E+01
   O       0.14151764689015E+02     0.14235625611756E+02     0.57311078997186E+01
   O       0.10028278145365E+02     0.19273042804605E+01     0.30207167205142E+02
   O       0.10018268137676E+02     0.60111975669204E+01     0.26195695656274E+02
   O       0.14099441475641E+02     0.19298760517410E+01     0.26189374837862E+02
   O       0.14101789985727E+02     0.60010413702872E+01     0.30207172949176E+02
[...]
   O      -0.12396098072063E-04     0.11280186590585E-04    -0.37708588799317E-04
   O      -0.10338288385741E-04    -0.10726331406097E-04     0.20779888305667E-04
   O       0.66377550365948E-06    -0.80538427849307E-05     0.45228667021099E-04
   O      -0.11930467692368E-04    -0.66306019376975E-05    -0.15012434836592E-04
   O       0.14615791378941E-04     0.11745187880147E-04    -0.10763873262260E-05
   O      -0.11795596981925E-06    -0.12985659642580E-04    -0.43458735370677E-04
   O       0.83613874973347E-05     0.88319744311208E-05     0.18527063491079E-04
   O       0.37847613470659E-05    -0.49397132338216E-05     0.43030471075290E-04
   O      -0.30833276560968E-04    -0.27625230800454E-04    -0.11438100921873E-04
   O       0.19047454017412E-04     0.96344795730979E-06     0.13629687704377E-04
   O       0.17328146395424E-05     0.96151433729534E-05    -0.52388264418491E-04
   O       0.10695567230368E-04     0.11586377190086E-04     0.13755428172849E-04
   O       0.31167127898219E-04     0.26086500975661E-04    -0.65601868181608E-05
   O      -0.26387278394919E-05    -0.48347978175850E-05    -0.17045960252504E-04
   O      -0.40839843032721E-05    -0.61603314499593E-05     0.50557158080621E-04
   O       0.47669299821359E-05    -0.70855414516799E-06    -0.17612888729684E-04
   O      -0.25198501705304E-04    -0.19720620260907E-04     0.11353725925285E-04
   O      -0.19904995805957E-04    -0.13254625723432E-05     0.36079099698227E-05
 


   Partial temperatures (for each ionic specie) 
   Species  Temp (K)   Mean Square Displacement (a.u.)
        1   2.05E-03     2.2594E-03
        2   1.80E-02     5.8061E-03
        3   3.53E-02     3.0557E-04
 
  nfi     ekinc              temph  tempp     etot                 enthal               econs                econt              vnhh    xnhh0   vnhp    xnhp0
   3100    0.000000182008062    0.0    0.02   -2898.530476864866   -2898.544286065976   -2898.544260579412   -2898.544260397404   0.0000   0.0000   0.0000   0.0000
Elct. dipole 1  -29.541926  Ionic dipole 1   15.732725

   writing restart file (with schema): ./Ag16_334_59.save/
     restart      :     39.61s CPU     44.37s WALL (      12 calls)
   3101    0.000000182529698    0.0    0.02   -2898.530476931910   -2898.544286415269   -2898.544260886957   -2898.544260704427   0.0000   0.0000   0.0000   0.0000
Elct. dipole 1  -29.543226  Ionic dipole 1   15.733743
   3102    0.000000183056936    0.0    0.02   -2898.530477041503   -2898.544286808160   -2898.544261237222   -2898.544261054165   0.0000   0.0000   0.0000   0.0000
Elct. dipole 1  -29.544531  Ionic dipole 1   15.734765
   3103    0.000000183588497    0.0    0.02   -2898.530477098541   -2898.544287149370   -2898.544261534952   -2898.544261351363   0.0000   0.0000   0.0000   0.0000
Elct. dipole 1  -29.545841  Ionic dipole 1   15.735790
   3104    0.000000184125028    0.0    0.02   -2898.530477194782   -2898.544287530868   -2898.544261872140   -2898.544261688015   0.0000   0.0000   0.0000   0.0000
Elct. dipole 1  -29.547156  Ionic dipole 1   15.736820
   3105    0.000000184664710    0.0    0.02   -2898.530477315228   -2898.544287937903   -2898.544262234064   -2898.544262049399   0.0000   0.0000   0.0000   0.0000
Elct. dipole 1  -29.548476  Ionic dipole 1   15.737853
   3106    0.000000185207940    0.0    0.02   -2898.530477449368   -2898.544288359391   -2898.544262609668   -2898.544262424460   0.0000   0.0000   0.0000   0.0000
Elct. dipole 1  -29.549800  Ionic dipole 1   15.738890
   3107    0.000000185754652    0.0    0.02   -2898.530477468353   -2898.544288666797   -2898.544262870446   -2898.544262684692   0.0000   0.0000   0.0000   0.0000
Elct. dipole 1  -29.551129  Ionic dipole 1   15.739931
   3108    0.000000186303004    0.0    0.02   -2898.530477539374   -2898.544289027281   -2898.544263183588   -2898.544262997284   0.0000   0.0000   0.0000   0.0000
Elct. dipole 1  -29.552463  Ionic dipole 1   15.740975
   3109    0.000000186855313    0.0    0.02   -2898.530477624699   -2898.544289402944   -2898.544263511225   -2898.544263324370   0.0000   0.0000   0.0000   0.0000
Elct. dipole 1  -29.553802  Ionic dipole 1   15.742023
   3110    0.000000187411427    0.0    0.02   -2898.530477713214   -2898.544289783112   -2898.544263842717   -2898.544263655305   0.0000   0.0000   0.0000   0.0000
Elct. dipole 1  -29.555145  Ionic dipole 1   15.743075
   3111    0.000000187969404    0.0    0.02   -2898.530477824596   -2898.544290187402   -2898.544264197711   -2898.544264009741   0.0000   0.0000   0.0000   0.0000
Elct. dipole 1  -29.556494  Ionic dipole 1   15.744131
   3112    0.000000188527829    0.0    0.02   -2898.530477885583   -2898.544290542520   -2898.544264502944   -2898.544264314417   0.0000   0.0000   0.0000   0.0000
Elct. dipole 1  -29.557847  Ionic dipole 1   15.745190
   3113    0.000000189085440    0.0    0.02   -2898.530477972907   -2898.544290925045   -2898.544264835030   -2898.544264645945   0.0000   0.0000   0.0000   0.0000
Elct. dipole 1  -29.559205  Ionic dipole 1   15.746253
   3114    0.000000189643790    0.0    0.02   -2898.530478062014   -2898.544291310304   -2898.544265169331   -2898.544264979687   0.0000   0.0000   0.0000   0.0000
Elct. dipole 1  -29.560568  Ionic dipole 1   15.747320
   3115    0.000000190203415    0.0    0.02   -2898.530478184202   -2898.544291729772   -2898.544265537357   -2898.544265347154   0.0000   0.0000   0.0000   0.0000
Elct. dipole 1  -29.561935  Ionic dipole 1   15.748390
   3116    0.000000190763757    0.0    0.02   -2898.530478276360   -2898.544292120479   -2898.544265876175   -2898.544265685411   0.0000   0.0000   0.0000   0.0000
Elct. dipole 1  -29.563308  Ionic dipole 1   15.749464
   3117    0.000000191324827    0.0    0.02   -2898.530478355945   -2898.544292499910   -2898.544266203306   -2898.544266011981   0.0000   0.0000   0.0000   0.0000
Elct. dipole 1  -29.564685  Ionic dipole 1   15.750541
   3118    0.000000191884859    0.0    0.02   -2898.530478452159   -2898.544292897345   -2898.544266548065   -2898.544266356181   0.0000   0.0000   0.0000   0.0000
Elct. dipole 1  -29.566067  Ionic dipole 1   15.751622
   3119    0.000000192442238    0.0    0.02   -2898.530478555445   -2898.544293303032   -2898.544266900738   -2898.544266708295   0.0000   0.0000   0.0000   0.0000
Elct. dipole 1  -29.567454  Ionic dipole 1   15.752707
   3120    0.000000192997685    0.0    0.02   -2898.530478663359   -2898.544293714480   -2898.544267258872   -2898.544267065874   0.0000   0.0000   0.0000   0.0000
Elct. dipole 1  -29.568846  Ionic dipole 1   15.753795
   3121    0.000000193551463    0.0    0.02   -2898.530478725622   -2898.544294081635   -2898.544267572450   -2898.544267378898   0.0000   0.0000   0.0000   0.0000
Elct. dipole 1  -29.570243  Ionic dipole 1   15.754887
   3122    0.000000194103676    0.0    0.02   -2898.530478802048   -2898.544294464190   -2898.544267901206   -2898.544267707103   0.0000   0.0000   0.0000   0.0000
Elct. dipole 1  -29.571645  Ionic dipole 1   15.755982
   3123    0.000000194654326    0.0    0.02   -2898.530478917968   -2898.544294887648   -2898.544268270682   -2898.544268076028   0.0000   0.0000   0.0000   0.0000
Elct. dipole 1  -29.573051  Ionic dipole 1   15.757081
   3124    0.000000195201454    0.0    0.02   -2898.530479013562   -2898.544295292349   -2898.544268621256   -2898.544268426055   0.0000   0.0000   0.0000   0.0000
Elct. dipole 1  -29.574463  Ionic dipole 1   15.758184
   3125    0.000000195745240    0.0    0.02   -2898.530479160248   -2898.544295749308   -2898.544269023983   -2898.544268828238   0.0000   0.0000   0.0000   0.0000
Elct. dipole 1  -29.575879  Ionic dipole 1   15.759290
   3126    0.000000196285297    0.0    0.02   -2898.530479254928   -2898.544296155685   -2898.544269376066   -2898.544269179780   0.0000   0.0000   0.0000   0.0000
Elct. dipole 1  -29.577301  Ionic dipole 1   15.760400
   3127    0.000000196820341    0.0    0.02   -2898.530479431269   -2898.544296645118   -2898.544269811178   -2898.544269614358   0.0000   0.0000   0.0000   0.0000
Elct. dipole 1  -29.578727  Ionic dipole 1   15.761513
   3128    0.000000197352192    0.0    0.02   -2898.530479573895   -2898.544297102131   -2898.544270213888   -2898.544270016536   0.0000   0.0000   0.0000   0.0000
Elct. dipole 1  -29.580158  Ionic dipole 1   15.762630
   3129    0.000000197880018    0.0    0.02   -2898.530479727411   -2898.544297571820   -2898.544270629332   -2898.544270431452   0.0000   0.0000   0.0000   0.0000
Elct. dipole 1  -29.581594  Ionic dipole 1   15.763750
   3130    0.000000198403397    0.0    0.02   -2898.530479767446   -2898.544297929463   -2898.544270932830   -2898.544270734426   0.0000   0.0000   0.0000   0.0000
Elct. dipole 1  -29.583036  Ionic dipole 1   15.764874
   3131    0.000000198921536    0.0    0.02   -2898.530479823042   -2898.544298304196   -2898.544271253559   -2898.544271054637   0.0000   0.0000   0.0000   0.0000
Elct. dipole 1  -29.584482  Ionic dipole 1   15.766001
   3132    0.000000199432271    0.0    0.02   -2898.530479873999   -2898.544298675909   -2898.544271571447   -2898.544271372015   0.0000   0.0000   0.0000   0.0000
Elct. dipole 1  -29.585933  Ionic dipole 1   15.767131
   3133    0.000000199938443    0.0    0.02   -2898.530480077824   -2898.544299201667   -2898.544272043604   -2898.544271843666   0.0000   0.0000   0.0000   0.0000
Elct. dipole 1  -29.587389  Ionic dipole 1   15.768265
   3134    0.000000200440537    0.0    0.02   -2898.530480196256   -2898.544299643727   -2898.544272432331   -2898.544272231891   0.0000   0.0000   0.0000   0.0000
Elct. dipole 1  -29.588851  Ionic dipole 1   15.769403
   3135    0.000000200936040    0.0    0.02   -2898.530480320651   -2898.544300093574   -2898.544272829149   -2898.544272628213   0.0000   0.0000   0.0000   0.0000
Elct. dipole 1  -29.590317  Ionic dipole 1   15.770544
   3136    0.000000201425311    0.0    0.02   -2898.530480356704   -2898.544300456601   -2898.544273139493   -2898.544272938068   0.0000   0.0000   0.0000   0.0000
Elct. dipole 1  -29.591788  Ionic dipole 1   15.771689
   3137    0.000000201907296    0.0    0.02   -2898.530480453139   -2898.544300881819   -2898.544273512416   -2898.544273310509   0.0000   0.0000   0.0000   0.0000
Elct. dipole 1  -29.593265  Ionic dipole 1   15.772836
   3138    0.000000202380121    0.0    0.02   -2898.530480461967   -2898.544301221071   -2898.544273799801   -2898.544273597421   0.0000   0.0000   0.0000   0.0000
Elct. dipole 1  -29.594747  Ionic dipole 1   15.773988
   3139    0.000000202845157    0.0    0.02   -2898.530480495141   -2898.544301586331   -2898.544274113664   -2898.544273910818   0.0000   0.0000   0.0000   0.0000
Elct. dipole 1  -29.596234  Ionic dipole 1   15.775142
   3140    0.000000203303682    0.0    0.02   -2898.530480571028   -2898.544301996109   -2898.544274472554   -2898.544274269250   0.0000   0.0000   0.0000   0.0000
Elct. dipole 1  -29.597726  Ionic dipole 1   15.776300
   3141    0.000000203756575    0.0    0.02   -2898.530480660651   -2898.544302421191   -2898.544274847304   -2898.544274643548   0.0000   0.0000   0.0000   0.0000
Elct. dipole 1  -29.599222  Ionic dipole 1   15.777462
   3142    0.000000204203170    0.0    0.02   -2898.530480713910   -2898.544302811786   -2898.544275188159   -2898.544274983956   0.0000   0.0000   0.0000   0.0000
Elct. dipole 1  -29.600725  Ionic dipole 1   15.778627
   3143    0.000000204641004    0.0    0.02   -2898.530480844041   -2898.544303281305   -2898.544275608569   -2898.544275403928   0.0000   0.0000   0.0000   0.0000
Elct. dipole 1  -29.602232  Ionic dipole 1   15.779795
   3144    0.000000205069803    0.0    0.02   -2898.530480983215   -2898.544303761520   -2898.544276040343   -2898.544275835274   0.0000   0.0000   0.0000   0.0000
Elct. dipole 1  -29.603745  Ionic dipole 1   15.780966
   3145    0.000000205489248    0.0    0.02   -2898.530481018701   -2898.544304140050   -2898.544276371145   -2898.544276165656   0.0000   0.0000   0.0000   0.0000
Elct. dipole 1  -29.605263  Ionic dipole 1   15.782141
   3146    0.000000205898380    0.0    0.02   -2898.530481108008   -2898.544304574292   -2898.544276758406   -2898.544276552508   0.0000   0.0000   0.0000   0.0000
Elct. dipole 1  -29.606786  Ionic dipole 1   15.783319
   3147    0.000000206298036    0.0    0.02   -2898.530481192029   -2898.544305005116   -2898.544277143036   -2898.544276936738   0.0000   0.0000   0.0000   0.0000
Elct. dipole 1  -29.608314  Ionic dipole 1   15.784501
   3148    0.000000206688683    0.0    0.02   -2898.530481339167   -2898.544305501129   -2898.544277593682   -2898.544277386994   0.0000   0.0000   0.0000   0.0000
Elct. dipole 1  -29.609848  Ionic dipole 1   15.785686
   3149    0.000000207071651    0.0    0.02   -2898.530481399436   -2898.544305912073   -2898.544277960125   -2898.544277753054   0.0000   0.0000   0.0000   0.0000
Elct. dipole 1  -29.611386  Ionic dipole 1   15.786874
   3150    0.000000207447677    0.0    0.02   -2898.530481472134   -2898.544306337439   -2898.544278341896   -2898.544278134449   0.0000   0.0000   0.0000   0.0000
Elct. dipole 1  -29.612930  Ionic dipole 1   15.788065
   3151    0.000000207814772    0.0    0.02   -2898.530481567796   -2898.544306788029   -2898.544278749829   -2898.544278542014   0.0000   0.0000   0.0000   0.0000
Elct. dipole 1  -29.614480  Ionic dipole 1   15.789260
   3152    0.000000208172544    0.0    0.02   -2898.530481649623   -2898.544307226636   -2898.544279146754   -2898.544278938582   0.0000   0.0000   0.0000   0.0000
Elct. dipole 1  -29.616035  Ionic dipole 1   15.790458
   3153    0.000000208520162    0.0    0.02   -2898.530481731893   -2898.544307667940   -2898.544279547388   -2898.544279338867   0.0000   0.0000   0.0000   0.0000
Elct. dipole 1  -29.617595  Ionic dipole 1   15.791659
   3154    0.000000208855831    0.0    0.02   -2898.530481815724   -2898.544308112952   -2898.544279952770   -2898.544279743915   0.0000   0.0000   0.0000   0.0000
Elct. dipole 1  -29.619160  Ionic dipole 1   15.792863
   3155    0.000000209179681    0.0    0.02   -2898.530481865571   -2898.544308526059   -2898.544280327328   -2898.544280118148   0.0000   0.0000   0.0000   0.0000
Elct. dipole 1  -29.620731  Ionic dipole 1   15.794071
   3156    0.000000209492473    0.0    0.02   -2898.530481921602   -2898.544308947669   -2898.544280711500   -2898.544280502007   0.0000   0.0000   0.0000   0.0000
Elct. dipole 1  -29.622307  Ionic dipole 1   15.795281
   3157    0.000000209796083    0.0    0.02   -2898.530482001062   -2898.544309394742   -2898.544281122282   -2898.544280912487   0.0000   0.0000   0.0000   0.0000
Elct. dipole 1  -29.623889  Ionic dipole 1   15.796495
   3158    0.000000210091614    0.0    0.02   -2898.530482069392   -2898.544309832819   -2898.544281525251   -2898.544281315160   0.0000   0.0000   0.0000   0.0000
Elct. dipole 1  -29.625476  Ionic dipole 1   15.797712
   3159    0.000000210378463    0.0    0.02   -2898.530482099144   -2898.544310234807   -2898.544281893344   -2898.544281682965   0.0000   0.0000   0.0000   0.0000
Elct. dipole 1  -29.627068  Ionic dipole 1   15.798933
   3160    0.000000210655328    0.0    0.02   -2898.530482200635   -2898.544310710812   -2898.544282336696   -2898.544282126041   0.0000   0.0000   0.0000   0.0000
Elct. dipole 1  -29.628666  Ionic dipole 1   15.800156
   3161    0.000000210920445    0.0    0.02   -2898.530482325001   -2898.544311212021   -2898.544282806524   -2898.544282595604   0.0000   0.0000   0.0000   0.0000
Elct. dipole 1  -29.630270  Ionic dipole 1   15.801383
   3162    0.000000211173920    0.0    0.02   -2898.530482372981   -2898.544311639084   -2898.544283203508   -2898.544282992334   0.0000   0.0000   0.0000   0.0000
Elct. dipole 1  -29.631878  Ionic dipole 1   15.802612
   3163    0.000000211416188    0.0    0.02   -2898.530482444274   -2898.544312091712   -2898.544283627386   -2898.544283415969   0.0000   0.0000   0.0000   0.0000
Elct. dipole 1  -29.633492  Ionic dipole 1   15.803845
   3164    0.000000211647102    0.0    0.02   -2898.530482597569   -2898.544312628914   -2898.544284137196   -2898.544283925549   0.0000   0.0000   0.0000   0.0000
Elct. dipole 1  -29.635112  Ionic dipole 1   15.805081
   3165    0.000000211866946    0.0    0.02   -2898.530482695439   -2898.544313113082   -2898.544284595359   -2898.544284383493   0.0000   0.0000   0.0000   0.0000
Elct. dipole 1  -29.636737  Ionic dipole 1   15.806320
   3166    0.000000212077092    0.0    0.02   -2898.530482700494   -2898.544313506849   -2898.544284964534   -2898.544284752457   0.0000   0.0000   0.0000   0.0000
Elct. dipole 1  -29.638368  Ionic dipole 1   15.807562
   3167    0.000000212278074    0.0    0.02   -2898.530482741599   -2898.544313939322   -2898.544285373854   -2898.544285161576   0.0000   0.0000   0.0000   0.0000
Elct. dipole 1  -29.640005  Ionic dipole 1   15.808807
   3168    0.000000212469611    0.0    0.02   -2898.530482835848   -2898.544314427201   -2898.544285840043   -2898.544285627574   0.0000   0.0000   0.0000   0.0000
Elct. dipole 1  -29.641646  Ionic dipole 1   15.810055
   3169    0.000000212650434    0.0    0.02   -2898.530482924177   -2898.544314911758   -2898.544286304396   -2898.544286091746   0.0000   0.0000   0.0000   0.0000
Elct. dipole 1  -29.643294  Ionic dipole 1   15.811306
   3170    0.000000212818598    0.0    0.02   -2898.530482932612   -2898.544315319077   -2898.544286693018   -2898.544286480199   0.0000   0.0000   0.0000   0.0000
Elct. dipole 1  -29.644947  Ionic dipole 1   15.812560
   3171    0.000000212975272    0.0    0.02   -2898.530483019496   -2898.544315807193   -2898.544287163965   -2898.544286950989   0.0000   0.0000   0.0000   0.0000
Elct. dipole 1  -29.646605  Ionic dipole 1   15.813817
   3172    0.000000213121368    0.0    0.02   -2898.530483079477   -2898.544316271176   -2898.544287612330   -2898.544287399209   0.0000   0.0000   0.0000   0.0000
Elct. dipole 1  -29.648269  Ionic dipole 1   15.815077
   3173    0.000000213256635    0.0    0.02   -2898.530483161384   -2898.544316759790   -2898.544288086896   -2898.544287873640   0.0000   0.0000   0.0000   0.0000
Elct. dipole 1  -29.649939  Ionic dipole 1   15.816340
   3174    0.000000213381226    0.0    0.02   -2898.530483295829   -2898.544317303625   -2898.544288618272   -2898.544288404891   0.0000   0.0000   0.0000   0.0000
Elct. dipole 1  -29.651614  Ionic dipole 1   15.817606
   3175    0.000000213495396    0.0    0.02   -2898.530483355721   -2898.544317775678   -2898.544289079473   -2898.544288865978   0.0000   0.0000   0.0000   0.0000
Elct. dipole 1  -29.653295  Ionic dipole 1   15.818875
   3176    0.000000213600060    0.0    0.02   -2898.530483350684   -2898.544318185295   -2898.544289479864   -2898.544289266264   0.0000   0.0000   0.0000   0.0000
Elct. dipole 1  -29.654982  Ionic dipole 1   15.820147
   3177    0.000000213694777    0.0    0.02   -2898.530483421853   -2898.544318673836   -2898.544289960819   -2898.544289747124   0.0000   0.0000   0.0000   0.0000
Elct. dipole 1  -29.656674  Ionic dipole 1   15.821422
   3178    0.000000213778566    0.0    0.02   -2898.530483480218   -2898.544319152511   -2898.544290433563   -2898.544290219784   0.0000   0.0000   0.0000   0.0000
Elct. dipole 1  -29.658372  Ionic dipole 1   15.822699
   3179    0.000000213852065    0.0    0.02   -2898.530483442939   -2898.544319538151   -2898.544290814940   -2898.544290601088   0.0000   0.0000   0.0000   0.0000
Elct. dipole 1  -29.660075  Ionic dipole 1   15.823980
   3180    0.000000213915156    0.0    0.02   -2898.530483569343   -2898.544320090466   -2898.544291364675   -2898.544291150760   0.0000   0.0000   0.0000   0.0000
Elct. dipole 1  -29.661784  Ionic dipole 1   15.825263
   3181    0.000000213967134    0.0    0.02   -2898.530483617818   -2898.544320567721   -2898.544291841043   -2898.544291627076   0.0000   0.0000   0.0000   0.0000
Elct. dipole 1  -29.663499  Ionic dipole 1   15.826549
