
     Program CP v.6.6 starts on 20Feb2021 at  1: 2:30 

     This program is part of the open-source Quantum ESPRESSO suite
     for quantum simulation of materials; please cite
         "P. Giannozzi et al., J. Phys.:Condens. Matter 21 395502 (2009);
         "P. Giannozzi et al., J. Phys.:Condens. Matter 29 465901 (2017);
          URL http://www.quantum-espresso.org", 
     in publications or presentations arising from this work. More details at
     http://www.quantum-espresso.org/quote

     Parallel version (MPI & OpenMP), running on     320 processor cores
     Number of MPI processes:               160
     Threads/MPI process:                     2

     MPI processes distributed on     4 nodes
     R & G space division:  proc/nbgrp/npool/nimage =     160
     Fft bands division:     nmany     =       1
     Waiting for input...
     Reading input from standard input

   Job Title: MD Simulation


   Atomic Pseudopotentials Parameters
   ----------------------------------

   Reading pseudopotential for specie #  1 from file :
   ./O.pz-n-rrkjus_psl.0.1.UPF
     Message from routine emend_upf/check:
     BEWARE !!! Possible out of bounds while fixing pseudo
     Message from routine emend_upf/check:
     BEWARE !!! Possible out of bounds while fixing pseudo
     Message from routine read_upf:
     Pseudo file O.pz-n-rrkjus_psl.0.1.UPF has been fixed on the fly.
     To avoid this message in the future, permanently fix 
     your pseudo files following these instructions: 
     https://gitlab.com/QEF/q-e/blob/master/upftools/how_to_fix_upf.md
   file type is UPF v.2

   Reading pseudopotential for specie #  2 from file :
   ./Ag.pz-d-rrkjus.UPF
   file type is UPF v.1

   Reading pseudopotential for specie #  3 from file :
   ./Mg.pz-bhs.UPF
   file type is UPF v.1
     file Ag.pz-d-rrkjus.UPF: wavefunction(s)  4D 5S renormalized


   Main Simulation Parameters (from input)
   ---------------------------------------
   Restart Mode       =       1   restart        
   Number of MD Steps =    7000
   Print out every           10 MD Steps
   Reads from unit    =      59
   Writes to unit     =      59
   MD Simulation time step            =       8.00
   Electronic fictitious mass (emass) =     300.00
   emass cut-off                      =       2.50

   Simulation Cell Parameters (from input)
   external pressure       =            0.00 [KBar]
   wmass (calculated)      =       949740.81 [AU]
   initial cell from CELL_PARAMETERS card
      12.63360000    0.00000000    0.00000000
       0.00000000   12.63360000    0.00000000
       0.00000000    0.00000000   16.84480000
   ibrav =    0
   alat  =    23.87404397
   a1    =    23.87404397    0.00000000    0.00000000
   a2    =     0.00000000   23.87404397    0.00000000
   a3    =     0.00000000    0.00000000   31.83205862
 
   b1    =     0.04188649    0.00000000    0.00000000
   b2    =     0.00000000    0.04188649    0.00000000
   b3    =     0.00000000    0.00000000    0.03141487
   omega =   18143.31767057

   Energy Cut-offs
   ---------------
   Ecutwfc =   50.0 Ry,      Ecutrho =  400.0 Ry,      Ecuts =  200.0 Ry
   Gcutwfc =   26.9     ,    Gcutrho =   76.0          Gcuts =   53.7
   NOTA BENE: refg, mmx =   0.050000  9600
   Eigenvalues calculated without the kinetic term contribution
   Orthog. with lagrange multipliers : eps =   0.10E-08,  max = 100
   verlet algorithm for electron dynamics
   with friction frice =  0.0500 , grease =  1.0000
   Electron dynamics : the temperature is not controlled

   Electronic states
   -----------------
   Number of Electrons=  1236, of States =   618
   Occupation numbers :
   2.00 2.00 2.00 2.00 2.00 2.00 2.00 2.00 2.00 2.00
   2.00 2.00 2.00 2.00 2.00 2.00 2.00 2.00 2.00 2.00
   2.00 2.00 2.00 2.00 2.00 2.00 2.00 2.00 2.00 2.00
   2.00 2.00 2.00 2.00 2.00 2.00 2.00 2.00 2.00 2.00
   2.00 2.00 2.00 2.00 2.00 2.00 2.00 2.00 2.00 2.00
   2.00 2.00 2.00 2.00 2.00 2.00 2.00 2.00 2.00 2.00
   2.00 2.00 2.00 2.00 2.00 2.00 2.00 2.00 2.00 2.00
   2.00 2.00 2.00 2.00 2.00 2.00 2.00 2.00 2.00 2.00
   2.00 2.00 2.00 2.00 2.00 2.00 2.00 2.00 2.00 2.00
   2.00 2.00 2.00 2.00 2.00 2.00 2.00 2.00 2.00 2.00
   2.00 2.00 2.00 2.00 2.00 2.00 2.00 2.00 2.00 2.00
   2.00 2.00 2.00 2.00 2.00 2.00 2.00 2.00 2.00 2.00
   2.00 2.00 2.00 2.00 2.00 2.00 2.00 2.00 2.00 2.00
   2.00 2.00 2.00 2.00 2.00 2.00 2.00 2.00 2.00 2.00
   2.00 2.00 2.00 2.00 2.00 2.00 2.00 2.00 2.00 2.00
   2.00 2.00 2.00 2.00 2.00 2.00 2.00 2.00 2.00 2.00
   2.00 2.00 2.00 2.00 2.00 2.00 2.00 2.00 2.00 2.00
   2.00 2.00 2.00 2.00 2.00 2.00 2.00 2.00 2.00 2.00
   2.00 2.00 2.00 2.00 2.00 2.00 2.00 2.00 2.00 2.00
   2.00 2.00 2.00 2.00 2.00 2.00 2.00 2.00 2.00 2.00
   2.00 2.00 2.00 2.00 2.00 2.00 2.00 2.00 2.00 2.00
   2.00 2.00 2.00 2.00 2.00 2.00 2.00 2.00 2.00 2.00
   2.00 2.00 2.00 2.00 2.00 2.00 2.00 2.00 2.00 2.00
   2.00 2.00 2.00 2.00 2.00 2.00 2.00 2.00 2.00 2.00
   2.00 2.00 2.00 2.00 2.00 2.00 2.00 2.00 2.00 2.00
   2.00 2.00 2.00 2.00 2.00 2.00 2.00 2.00 2.00 2.00
   2.00 2.00 2.00 2.00 2.00 2.00 2.00 2.00 2.00 2.00
   2.00 2.00 2.00 2.00 2.00 2.00 2.00 2.00 2.00 2.00
   2.00 2.00 2.00 2.00 2.00 2.00 2.00 2.00 2.00 2.00
   2.00 2.00 2.00 2.00 2.00 2.00 2.00 2.00 2.00 2.00
   2.00 2.00 2.00 2.00 2.00 2.00 2.00 2.00 2.00 2.00
   2.00 2.00 2.00 2.00 2.00 2.00 2.00 2.00 2.00 2.00
   2.00 2.00 2.00 2.00 2.00 2.00 2.00 2.00 2.00 2.00
   2.00 2.00 2.00 2.00 2.00 2.00 2.00 2.00 2.00 2.00
   2.00 2.00 2.00 2.00 2.00 2.00 2.00 2.00 2.00 2.00
   2.00 2.00 2.00 2.00 2.00 2.00 2.00 2.00 2.00 2.00
   2.00 2.00 2.00 2.00 2.00 2.00 2.00 2.00 2.00 2.00
   2.00 2.00 2.00 2.00 2.00 2.00 2.00 2.00 2.00 2.00
   2.00 2.00 2.00 2.00 2.00 2.00 2.00 2.00 2.00 2.00
   2.00 2.00 2.00 2.00 2.00 2.00 2.00 2.00 2.00 2.00
   2.00 2.00 2.00 2.00 2.00 2.00 2.00 2.00 2.00 2.00
   2.00 2.00 2.00 2.00 2.00 2.00 2.00 2.00 2.00 2.00
   2.00 2.00 2.00 2.00 2.00 2.00 2.00 2.00 2.00 2.00
   2.00 2.00 2.00 2.00 2.00 2.00 2.00 2.00 2.00 2.00
   2.00 2.00 2.00 2.00 2.00 2.00 2.00 2.00 2.00 2.00
   2.00 2.00 2.00 2.00 2.00 2.00 2.00 2.00 2.00 2.00
   2.00 2.00 2.00 2.00 2.00 2.00 2.00 2.00 2.00 2.00
   2.00 2.00 2.00 2.00 2.00 2.00 2.00 2.00 2.00 2.00
   2.00 2.00 2.00 2.00 2.00 2.00 2.00 2.00 2.00 2.00
   2.00 2.00 2.00 2.00 2.00 2.00 2.00 2.00 2.00 2.00
   2.00 2.00 2.00 2.00 2.00 2.00 2.00 2.00 2.00 2.00
   2.00 2.00 2.00 2.00 2.00 2.00 2.00 2.00 2.00 2.00
   2.00 2.00 2.00 2.00 2.00 2.00 2.00 2.00 2.00 2.00
   2.00 2.00 2.00 2.00 2.00 2.00 2.00 2.00 2.00 2.00
   2.00 2.00 2.00 2.00 2.00 2.00 2.00 2.00 2.00 2.00
   2.00 2.00 2.00 2.00 2.00 2.00 2.00 2.00 2.00 2.00
   2.00 2.00 2.00 2.00 2.00 2.00 2.00 2.00 2.00 2.00
   2.00 2.00 2.00 2.00 2.00 2.00 2.00 2.00 2.00 2.00
   2.00 2.00 2.00 2.00 2.00 2.00 2.00 2.00 2.00 2.00
   2.00 2.00 2.00 2.00 2.00 2.00 2.00 2.00 2.00 2.00
   2.00 2.00 2.00 2.00 2.00 2.00 2.00 2.00 2.00 2.00
   2.00 2.00 2.00 2.00 2.00 2.00 2.00 2.00


   Exchange and correlations functionals
   -------------------------------------
     Exchange-correlation=  SLA  PZ   NOGX NOGC
                           (   1   1   0   0   0   0   0)


   Ions Simulation Parameters
   --------------------------
   Ions are allowed to move
   Ions dynamics with newton equations
   the temperature is computed for   864 degrees of freedom
   ion dynamics with fricp =  0.0000 and greasp =  1.0000
   Ionic position (from input)
   sorted by specie, and converted to real a.u. coordinates
   Species   1 atoms =  138 mass =     29166.22 (a.u.),        16.00 (amu) rcmax =   0.50 (a.u.)
       17.686732    17.800724    29.675879
       17.686732    21.779731    25.696872
       21.665740    17.800724    25.696872
       21.665739    21.779731    29.675879
       17.686732    17.800724    21.717864
       17.686732    21.779731    17.738857
       21.665740    17.800724    17.738857
       21.665740    21.779731    21.717864
       17.686732    17.800724    13.759849
       17.686732    21.779732     9.780841
       21.665740    17.800724     9.780841
       21.665740    21.779731    13.759849
       17.686733    17.800725     5.801834
       17.686733    21.779732     1.822826
       21.665741    17.800725     1.822826
       21.665740    21.779732     5.801834
       17.686732     9.842708    29.675879
       17.686732    13.821716    25.696872
       21.665740     9.842709    25.696872
       21.665740    13.821716    29.675879
       17.686732     9.842709    21.717864
       17.686732    13.821716    17.738857
       21.665740     9.842709    17.738857
       21.665740    13.821716    21.717864
       17.686733     9.842709    13.759849
       17.686733    13.821717     9.780841
       21.665741     9.842709     9.780841
       21.665740    13.821716    13.759849
       17.686733     9.842709     5.801834
       17.686733    13.821717     1.822826
       21.665741     9.842710     1.822826
       21.665741    13.821717     5.801834
       17.686732     1.884693    29.675879
       17.686732     5.863701    25.696872
       21.665740     1.884693    25.696872
       21.665740     5.863701    29.675879
       17.686733     1.884694    21.717864
       17.686733     5.863701    17.738857
       21.665741     1.884694    17.738857
       21.665740     5.863701    21.717864
       17.686733     1.884694    13.759849
       17.686733     5.863701     9.780841
       21.665741     1.884694     9.780841
       21.665741     5.863701    13.759849
       17.686733     1.884694     5.801834
       17.686733     5.863702     1.822826
       21.665741     1.884695     1.822826
       21.665741     5.863702     5.801834
        9.728716    17.800724    29.675879
        9.728716    21.779731    25.696872
       13.707725    17.800724    25.696872
       13.707724    21.779731    29.675879
        9.728717    17.800724    21.717864
        9.728717    21.779731    17.738857
       13.707725    17.800724    17.738857
       13.707725    21.779731    21.717864
        9.728717    17.800724    13.759849
        9.728717    21.779732     9.780841
       13.707725    17.800724     9.780841
       13.707725    21.779731    13.759849
        9.728718    17.800725     5.801834
        9.728718    21.779732     1.822826
       13.707726    17.800725     1.822826
       13.707725    21.779732     5.801834
        9.728717     9.842708    29.675879
        9.728717    13.821716    25.696872
       13.707725     9.842709    25.696872
       13.707725    13.821716    29.675879
        9.728717     9.842709    21.717864
        9.728717    13.821716    17.738857
       13.707725     9.842709    17.738857
       13.707725    13.821716    21.717864
        9.728718     9.842709    13.759849
        9.728718    13.821717     9.780841
       13.707726     9.842709     9.780841
       13.707725    13.821716    13.759849
        9.728718     9.842709     5.801834
        9.728718    13.821717     1.822826
       13.707726     9.842710     1.822826
       13.707726    13.821717     5.801834
        9.728717     1.884693    29.675879
        9.728717     5.863701    25.696872
       13.707725     1.884693    25.696872
       13.707725     5.863701    29.675879
        9.728718     1.884694    21.717864
        9.728718     5.863701    17.738857
       13.707726     1.884694    17.738857
       13.707725     5.863701    21.717864
        9.728718     1.884694    13.759849
        9.728718     5.863701     9.780841
       13.707726     1.884694     9.780841
       13.707726     5.863701    13.759849
        9.728718     1.884694     5.801834
        9.728718     5.863702     1.822826
       13.707726     1.884695     1.822826
       13.707726     5.863702     5.801834
        1.770701    17.800724    29.675879
        1.770701    21.779731    25.696872
        5.749709    17.800724    25.696872
        5.749709    21.779731    29.675879
        1.770702    17.800724    21.717864
        1.770702    21.779731    17.738857
        5.749710    17.800724    17.738857
        5.749709    21.779731    21.717864
        1.770702    17.800724    13.759849
        1.770702    21.779732     9.780841
        5.749710    17.800724     9.780841
        5.749710    21.779731    13.759849
        1.770702    17.800725     5.801834
        1.770702    21.779732     1.822826
        5.749711    17.800725     1.822826
        5.749710    21.779732     5.801834
        1.770702     9.842708    29.675879
        1.770702    13.821716    25.696872
        5.749710     9.842709    25.696872
        5.749709    13.821716    29.675879
        1.770702     9.842709    21.717864
        5.749710    13.821716    21.717864
        1.770703     9.842709     5.801834
        1.770703    13.821717     1.822826
        5.749711     9.842710     1.822826
        5.749711    13.821717     5.801834
        1.770702     1.884693    29.675879
        1.770702     5.863701    25.696872
        5.749710     1.884693    25.696872
        5.749710     5.863701    29.675879
        1.770702     1.884694    21.717864
        1.770702     5.863701    17.738857
        5.749711     1.884694    17.738857
        5.749710     5.863701    21.717864
        1.770703     1.884694    13.759849
        1.770703     5.863701     9.780841
        5.749711     1.884694     9.780841
        5.749711     5.863701    13.759849
        1.770703     1.884694     5.801834
        1.770703     5.863702     1.822826
        5.749711     1.884695     1.822826
        5.749711     5.863702     5.801834
   Species   2 atoms =   12 mass =    196689.67 (a.u.),       107.90 (amu) rcmax =   0.50 (a.u.)
        1.770702    13.821716    17.738857
        5.749710     9.842709    17.738857
        5.749710    13.821716    17.738857
        1.770702     9.842709    17.738857
        1.770702     9.842709    13.759849
        1.770702    13.821717     9.780841
        5.749711     9.842709     9.780841
        5.749710    13.821717     9.780841
        5.749710     9.842709    13.759849
        1.770702    13.821717    13.759849
        5.749710    13.821716    13.759849
        1.770703     9.842709     9.780841
   Species   3 atoms =  138 mass =     44296.19 (a.u.),        24.30 (amu) rcmax =   0.50 (a.u.)
       21.665739    21.779731    25.696872
       21.665739    17.800724    29.675879
       17.686731    21.779731    29.675879
       17.686732    17.800724    25.696872
       21.665740    21.779732    17.738857
       21.665740    17.800724    21.717864
       17.686732    21.779731    21.717864
       17.686732    17.800724    17.738857
       21.665740    21.779732     9.780841
       21.665740    17.800724    13.759849
       17.686732    21.779732    13.759849
       17.686732    17.800724     9.780841
       21.665740    21.779732     1.822826
       21.665740    17.800725     5.801834
       17.686732    21.779732     5.801834
       17.686733    17.800725     1.822826
       21.665740    13.821716    25.696872
       21.665740     9.842708    29.675879
       17.686732    13.821716    29.675879
       17.686732     9.842709    25.696872
       21.665740    13.821716    17.738857
       21.665740     9.842709    21.717864
       17.686732    13.821716    21.717864
       17.686732     9.842709    17.738857
       21.665740    13.821717     9.780841
       21.665740     9.842709    13.759849
       17.686732    13.821717    13.759849
       17.686733     9.842709     9.780841
       21.665741    13.821717     1.822826
       21.665741     9.842709     5.801834
       17.686733    13.821717     5.801834
       17.686733     9.842710     1.822826
       21.665740     5.863701    25.696872
       21.665740     1.884693    29.675879
       17.686732     5.863701    29.675879
       17.686732     1.884693    25.696872
       21.665740     5.863701    17.738857
       21.665740     1.884694    21.717864
       17.686732     5.863701    21.717864
       17.686733     1.884694    17.738857
       21.665741     5.863702     9.780841
       21.665741     1.884694    13.759849
       17.686733     5.863702    13.759849
       17.686733     1.884694     9.780841
       21.665741     5.863702     1.822826
       21.665741     1.884694     5.801834
       17.686733     5.863702     5.801834
       17.686734     1.884695     1.822826
       13.707724    21.779731    25.696872
       13.707724    17.800724    29.675879
        9.728716    21.779731    29.675879
        9.728717    17.800724    25.696872
       13.707724    21.779732    17.738857
       13.707724    17.800724    21.717864
        9.728717    21.779731    21.717864
        9.728717    17.800724    17.738857
       13.707725    21.779732     9.780841
       13.707725    17.800724    13.759849
        9.728717    21.779732    13.759849
        9.728717    17.800724     9.780841
       13.707725    21.779732     1.822826
       13.707725    17.800725     5.801834
        9.728717    21.779732     5.801834
        9.728718    17.800725     1.822826
       13.707724    13.821716    25.696872
       13.707724     9.842708    29.675879
        9.728717    13.821716    29.675879
        9.728717     9.842709    25.696872
       13.707725    13.821716    17.738857
       13.707725     9.842709    21.717864
        9.728717    13.821716    21.717864
        9.728717     9.842709    17.738857
       13.707725    13.821717     9.780841
       13.707725     9.842709    13.759849
        9.728717    13.821717    13.759849
        9.728718     9.842709     9.780841
       13.707725    13.821717     1.822826
       13.707725     9.842709     5.801834
        9.728718    13.821717     5.801834
        9.728718     9.842710     1.822826
       13.707725     5.863701    25.696872
       13.707725     1.884693    29.675879
        9.728717     5.863701    29.675879
        9.728717     1.884693    25.696872
       13.707725     5.863701    17.738857
       13.707725     1.884694    21.717864
        9.728717     5.863701    21.717864
        9.728718     1.884694    17.738857
       13.707725     5.863702     9.780841
       13.707725     1.884694    13.759849
        9.728718     5.863702    13.759849
        9.728718     1.884694     9.780841
       13.707726     5.863702     1.822826
       13.707726     1.884694     5.801834
        9.728718     5.863702     5.801834
        9.728718     1.884695     1.822826
        5.749709    21.779731    25.696872
        5.749709    17.800724    29.675879
        1.770701    21.779731    29.675879
        1.770702    17.800724    25.696872
        5.749709    21.779732    17.738857
        5.749709    17.800724    21.717864
        1.770702    21.779731    21.717864
        1.770702    17.800724    17.738857
        5.749710    21.779732     9.780841
        5.749710    17.800724    13.759849
        1.770702    21.779732    13.759849
        1.770702    17.800724     9.780841
        5.749710    21.779732     1.822826
        5.749710    17.800725     5.801834
        1.770702    21.779732     5.801834
        1.770703    17.800725     1.822826
        5.749709    13.821716    25.696872
        5.749709     9.842708    29.675879
        1.770702    13.821716    29.675879
        1.770702     9.842709    25.696872
        5.749710     9.842709    21.717864
        1.770702    13.821716    21.717864
        5.749710    13.821717     1.822826
        5.749710     9.842709     5.801834
        1.770703    13.821717     5.801834
        1.770703     9.842710     1.822826
        5.749710     5.863701    25.696872
        5.749710     1.884693    29.675879
        1.770702     5.863701    29.675879
        1.770702     1.884693    25.696872
        5.749710     5.863701    17.738857
        5.749710     1.884694    21.717864
        1.770702     5.863701    21.717864
        1.770703     1.884694    17.738857
        5.749710     5.863702     9.780841
        5.749710     1.884694    13.759849
        1.770703     5.863702    13.759849
        1.770703     1.884694     9.780841
        5.749711     5.863702     1.822826
        5.749711     1.884694     5.801834
        1.770703     5.863702     5.801834
        1.770703     1.884695     1.822826
   Ionic position will be re-read from restart file

   All atoms are allowed to move
   Ionic temperature is not controlled


   Cell Dynamics Parameters (from STDIN)
   -------------------------------------
   internal stress tensor calculated
   Starting cell generated from CELLDM
   Cell parameters will be re-read from restart file
   Constant VOLUME Molecular dynamics
   cell parameters are not allowed to move

    =====================================
    |  BERRY PHASE ELECTRIC FIELD 1        
    =====================================
    | direction    =         3            
    | intensity    =   0.00100 a.u.     
    =====================================

   Verbosity: iverbosity =  0



   Simulation dimensions initialization
   ------------------------------------

   unit vectors of full simulation cell
   in real space:                         in reciprocal space (units 2pi/alat):
   1    23.8740    0.0000    0.0000              1.0000    0.0000    0.0000
   2     0.0000   23.8740    0.0000              0.0000    1.0000    0.0000
   3     0.0000    0.0000   31.8321              0.0000    0.0000    0.7500
 
     Parallelization info
     --------------------
     sticks:   dense  smooth     PW     G-vecs:    dense   smooth      PW
     Min         112      55     13                15304     5404     658
     Max         114      58     16                15338     5430     686
     Sum       18121    9057   2249              2451395   866495  108199
 
 
   Real Mesh
   ---------
   Global Dimensions   Local  Dimensions   Processor Grid
   .X.   .Y.   .Z.     .X.   .Y.   .Z.     .X.   .Y.   .Z.
   160   160   216     160   160     2       1     1   160
   Array leading dimensions ( nr1x, nr2x, nr3x )   =    160   160   216
   Local number of cell to store the grid ( nrxx ) =      51200
   Number of x-y planes for each processors: 
  | 160,   2  | 160,   2  | 160,   2  | 160,   2  | 160,   2
  | 160,   2  | 160,   2  | 160,   2  | 160,   2  | 160,   2
  | 160,   2  | 160,   2  | 160,   2  | 160,   2  | 160,   2
  | 160,   2  | 160,   2  | 160,   2  | 160,   2  | 160,   2
  | 160,   2  | 160,   2  | 160,   2  | 160,   2  | 160,   2
  | 160,   2  | 160,   2  | 160,   2  | 160,   2  | 160,   2
  | 160,   2  | 160,   2  | 160,   2  | 160,   2  | 160,   2
  | 160,   2  | 160,   2  | 160,   2  | 160,   2  | 160,   2
  | 160,   2  | 160,   2  | 160,   2  | 160,   2  | 160,   2
  | 160,   2  | 160,   2  | 160,   2  | 160,   2  | 160,   2
  | 160,   2  | 160,   2  | 160,   2  | 160,   2  | 160,   2
  | 160,   2  | 160,   1  | 160,   1  | 160,   1  | 160,   1
  | 160,   1  | 160,   1  | 160,   1  | 160,   1  | 160,   1
  | 160,   1  | 160,   1  | 160,   1  | 160,   1  | 160,   1
  | 160,   1  | 160,   1  | 160,   1  | 160,   1  | 160,   1
  | 160,   1  | 160,   1  | 160,   1  | 160,   1  | 160,   1
  | 160,   1  | 160,   1  | 160,   1  | 160,   1  | 160,   1
  | 160,   1  | 160,   1  | 160,   1  | 160,   1  | 160,   1
  | 160,   1  | 160,   1  | 160,   1  | 160,   1  | 160,   1
  | 160,   1  | 160,   1  | 160,   1  | 160,   1  | 160,   1
  | 160,   1  | 160,   1  | 160,   1  | 160,   1  | 160,   1
  | 160,   1  | 160,   1  | 160,   1  | 160,   1  | 160,   1
  | 160,   1  | 160,   1  | 160,   1  | 160,   1  | 160,   1
  | 160,   1  | 160,   1  | 160,   1  | 160,   1  | 160,   1
  | 160,   1  | 160,   1  | 160,   1  | 160,   1  | 160,   1
  | 160,   1  | 160,   1  | 160,   1  | 160,   1  | 160,   1
  | 160,   1  | 160,   1  | 160,   1  | 160,   1  | 160,   1
  | 160,   1  | 160,   1  | 160,   1  | 160,   1  | 160,   1
  | 160,   1  | 160,   1  | 160,   1  | 160,   1  | 160,   1
  | 160,   1  | 160,   1  | 160,   1  | 160,   1  | 160,   1
  | 160,   1  | 160,   1  | 160,   1  | 160,   1  | 160,   1
  | 160,   1  | 160,   1  | 160,   1  | 160,   1  | 160,   1
 
   Smooth Real Mesh
   ----------------
   Global Dimensions   Local  Dimensions   Processor Grid
   .X.   .Y.   .Z.     .X.   .Y.   .Z.     .X.   .Y.   .Z.
   108   108   144     108   108     1       1     1   160
   Array leading dimensions ( nr1x, nr2x, nr3x )   =    108   108   144
   Local number of cell to store the grid ( nrxx ) =      11664
   Number of x-y planes for each processors: 
  | 108,   1  | 108,   1  | 108,   1  | 108,   1  | 108,   1
  | 108,   1  | 108,   1  | 108,   1  | 108,   1  | 108,   1
  | 108,   1  | 108,   1  | 108,   1  | 108,   1  | 108,   1
  | 108,   1  | 108,   1  | 108,   1  | 108,   1  | 108,   1
  | 108,   1  | 108,   1  | 108,   1  | 108,   1  | 108,   1
  | 108,   1  | 108,   1  | 108,   1  | 108,   1  | 108,   1
  | 108,   1  | 108,   1  | 108,   1  | 108,   1  | 108,   1
  | 108,   1  | 108,   1  | 108,   1  | 108,   1  | 108,   1
  | 108,   1  | 108,   1  | 108,   1  | 108,   1  | 108,   1
  | 108,   1  | 108,   1  | 108,   1  | 108,   1  | 108,   1
  | 108,   1  | 108,   1  | 108,   1  | 108,   1  | 108,   1
  | 108,   1  | 108,   1  | 108,   1  | 108,   1  | 108,   1
  | 108,   1  | 108,   1  | 108,   1  | 108,   1  | 108,   1
  | 108,   1  | 108,   1  | 108,   1  | 108,   1  | 108,   1
  | 108,   1  | 108,   1  | 108,   1  | 108,   1  | 108,   1
  | 108,   1  | 108,   1  | 108,   1  | 108,   1  | 108,   1
  | 108,   1  | 108,   1  | 108,   1  | 108,   1  | 108,   1
  | 108,   1  | 108,   1  | 108,   1  | 108,   1  | 108,   1
  | 108,   1  | 108,   1  | 108,   1  | 108,   1  | 108,   1
  | 108,   1  | 108,   1  | 108,   1  | 108,   1  | 108,   1
  | 108,   1  | 108,   1  | 108,   1  | 108,   1  | 108,   1
  | 108,   1  | 108,   1  | 108,   1  | 108,   1  | 108,   1
  | 108,   1  | 108,   1  | 108,   1  | 108,   1  | 108,   1
  | 108,   1  | 108,   1  | 108,   1  | 108,   1  | 108,   1
  | 108,   1  | 108,   1  | 108,   1  | 108,   1  | 108,   1
  | 108,   1  | 108,   1  | 108,   1  | 108,   1  | 108,   1
  | 108,   1  | 108,   1  | 108,   1  | 108,   1  | 108,   1
  | 108,   1  | 108,   1  | 108,   1  | 108,   1  | 108,   1
  | 108,   1  | 108,   1  | 108,   1  | 108,   1  | 108,   0
  | 108,   0  | 108,   0  | 108,   0  | 108,   0  | 108,   0
  | 108,   0  | 108,   0  | 108,   0  | 108,   0  | 108,   0
  | 108,   0  | 108,   0  | 108,   0  | 108,   0  | 108,   0
 
   Small Box Real Mesh
   -------------------
   Global Dimensions   Local  Dimensions   Processor Grid
   .X.   .Y.   .Z.     .X.   .Y.   .Z.     .X.   .Y.   .Z.
    30    30    30      30    30    30       1     1     1
   Array leading dimensions ( nr1x, nr2x, nr3x )   =     30    30    30
   Local number of cell to store the grid ( nrxx ) =      27000
 
   unit vectors of box grid cell
   in real space:                         in reciprocal space:
       4.4764    0.0000    0.0000              1.0000    0.0000    0.0000
       0.0000    4.4764    0.0000              0.0000    1.0000    0.0000
       0.0000    0.0000    4.4211              0.0000    0.0000    1.0125
 
   Reciprocal Space Mesh
   ---------------------
   Large Mesh
     Global(ngm_g)    MinLocal       MaxLocal      Average
        1225698           7652           7669        7660.61
   Smooth Mesh
     Global(ngms_g)   MinLocal       MaxLocal      Average
         433248           2702           2715        2707.80
   Wave function Mesh
     Global(ngw_g)    MinLocal       MaxLocal      Average
          54100            329            343         338.12

   Small box Mesh
   ngb =         5979 not distributed to processors


   System geometry initialization
   ------------------------------
   cell parameters read from restart file
   ibrav =    0       cell parameters 


   cell at current step : h(t)
      24.54239       0.00076       0.00000
       0.00076      24.54229       0.00000
       0.00000       0.00000      32.45460

   cell at previous step : h(t-dt)
      24.54239       0.00076       0.00000
       0.00076      24.54229       0.00000
       0.00000       0.00000      32.45460
 
 
   unit vectors of box grid cell
   in real space:                         in reciprocal space:
       4.6017    0.0001    0.0000              1.0000   -0.0000   -0.0000
       0.0001    4.6017    0.0000             -0.0000    1.0000   -0.0000
       0.0000    0.0000    4.5076             -0.0000   -0.0000    1.0209

   Matrix Multiplication Performances
   ortho mmul, time for parallel driver      =   0.00057 with  144 procs

   Constraints matrixes will be distributed block like on
   ortho sub-group =   12*  12 procs



   Pseudopotentials initialization
   -------------------------------
is, nh(is), ngb, kkbeta, lmaxq =     1    8 5979  761    5
 
                        qqq 
  -0.1545  -0.1232   0.0000   0.0000
  -0.1232  -0.0988   0.0000   0.0000
   0.0000   0.0000   0.1445   0.1161
   0.0000   0.0000   0.1161   0.0931
 
is, nh(is), ngb, kkbeta, lmaxq =     2   13 5979  987    5
 
                        qqq 
  -0.0000   0.0000   0.0000
   0.0000   0.5280  -0.5060
   0.0000  -0.5060   0.4853
 


   Common initialization

   Specie:     1
   1  indv=  1   ang. mom=  0
   2  indv=  2   ang. mom=  0
   3  indv=  3   ang. mom=  1
   4  indv=  3   ang. mom=  1
   5  indv=  3   ang. mom=  1
   6  indv=  4   ang. mom=  1
   7  indv=  4   ang. mom=  1
   8  indv=  4   ang. mom=  1
 
                        dion 
   0.3894   0.2818   0.0000   0.0000
   0.2818   0.2028   0.0000   0.0000
   0.0000   0.0000   0.4711   0.4028
   0.0000   0.0000   0.4028   0.3438

   Specie:     2
   1  indv=  1   ang. mom=  1
   2  indv=  1   ang. mom=  1
   3  indv=  1   ang. mom=  1
   4  indv=  2   ang. mom=  2
   5  indv=  2   ang. mom=  2
   6  indv=  2   ang. mom=  2
   7  indv=  2   ang. mom=  2
   8  indv=  2   ang. mom=  2
   9  indv=  3   ang. mom=  2
  10  indv=  3   ang. mom=  2
  11  indv=  3   ang. mom=  2
  12  indv=  3   ang. mom=  2
  13  indv=  3   ang. mom=  2
 
                        dion 
   0.0116   0.0000   0.0000
   0.0000  -1.4888   1.4112
   0.0000   1.4112  -1.3393

   Specie:     3
   1  indv=  1   ang. mom=  0
 
                        dion 
  10.8855

   Cell parameters from input file are used in electron mass preconditioning
   init_tpiba2=    0.06926403
 
   Short Legend and Physical Units in the Output
   ---------------------------------------------
   NFI    [int]          - step index
   EKINC  [HARTREE A.U.] - kinetic energy of the fictitious electronic dynamics
   TEMPH  [K]            - Temperature of the fictitious cell dynamics
   TEMP   [K]            - Ionic temperature
   ETOT   [HARTREE A.U.] - Scf total energy (Kohn-Sham hamiltonian)
   ENTHAL [HARTREE A.U.] - Enthalpy ( ETOT + P * V )
   ECONS  [HARTREE A.U.] - Enthalpy + kinetic energy of ions and cell
   ECONT  [HARTREE A.U.] - Constant of motion for the CP lagrangian
 
 Electronic velocities set to zero

   formf: eself=  5562.85116
   formf:     vps(g=0)=  -0.0000729     rhops(g=0)=  -0.0003057
   formf:     vps(g=0)=  -0.0000727     rhops(g=0)=  -0.0003050
   formf:     vps(g=0)=  -0.0000727     rhops(g=0)=  -0.0003050
   formf:     vps(g=0)=  -0.0000720     rhops(g=0)=  -0.0003028
   formf:     vps(g=0)=  -0.0000720     rhops(g=0)=  -0.0003028
   formf: sum_g vps(g)=   1.1729686 sum_g rhops(g)=  -4.3101249
   formf:     vps(g=0)=   0.0036178     rhops(g=0)=  -0.0005604
   formf:     vps(g=0)=   0.0035924     rhops(g=0)=  -0.0005591
   formf:     vps(g=0)=   0.0035924     rhops(g=0)=  -0.0005591
   formf:     vps(g=0)=   0.0035171     rhops(g=0)=  -0.0005552
   formf:     vps(g=0)=   0.0035171     rhops(g=0)=  -0.0005552
   formf: sum_g vps(g)=   9.1559870 sum_g rhops(g)=  -7.9018956
   formf:     vps(g=0)=   0.0008190     rhops(g=0)=  -0.0001019
   formf:     vps(g=0)=   0.0008121     rhops(g=0)=  -0.0001017
   formf:     vps(g=0)=   0.0008121     rhops(g=0)=  -0.0001017
   formf:     vps(g=0)=   0.0007914     rhops(g=0)=  -0.0001009
   formf:     vps(g=0)=   0.0007914     rhops(g=0)=  -0.0001009
   formf: sum_g vps(g)=   1.8172172 sum_g rhops(g)=  -1.4367083
   Delta V(G=0):   0.049659Ry,    1.351291eV
Initialize Berry phase electric field
 Additional found:           0
 Additional found:           0
 Additional found:           0
 Additional found:           0
 #not found, gtable:    2249.00000000000     
 #not found, gtabin:    2249.00000000000     
 WARNING setting to ZERO ions, electrons and cell velocities without 
 setting to ZERO all velocities could generate meaningles trajectories 
 
  nfi     ekinc              temph  tempp     etot                 enthal               econs                econt              vnhh    xnhh0   vnhp    xnhp0
   3101    0.000000001473997    0.0    0.02   -2898.530476931910   -2898.544286415269   -2898.544260888292   -2898.544260886818   0.0000   0.0000   0.0000   0.0000
Elct. dipole 1  -29.543226  Ionic dipole 1   15.733743
   3102    0.000000030051616    0.0    0.02   -2898.530476917728   -2898.544285507860   -2898.544260011212   -2898.544259981160   0.0000   0.0000   0.0000   0.0000
Elct. dipole 1  -29.543354  Ionic dipole 1   15.734764
   3103    0.000000143135352    0.0    0.02   -2898.530476949277   -2898.544285051964   -2898.544259671952   -2898.544259528817   0.0000   0.0000   0.0000   0.0000
Elct. dipole 1  -29.543853  Ionic dipole 1   15.735751
   3104    0.000000322218995    0.0    0.02   -2898.530477040460   -2898.544285168031   -2898.544259899582   -2898.544259577363   0.0000   0.0000   0.0000   0.0000
Elct. dipole 1  -29.544818  Ionic dipole 1   15.736691
   3105    0.000000435614230    0.0    0.02   -2898.530477226763   -2898.544285817404   -2898.544260590997   -2898.544260155383   0.0000   0.0000   0.0000   0.0000
Elct. dipole 1  -29.546183  Ionic dipole 1   15.737592
   3106    0.000000401879892    0.0    0.02   -2898.530477376928   -2898.544286681424   -2898.544261402433   -2898.544261000553   0.0000   0.0000   0.0000   0.0000
Elct. dipole 1  -29.547786  Ionic dipole 1   15.738481
   3107    0.000000277879441    0.0    0.02   -2898.530477396786   -2898.544287468768   -2898.544262061568   -2898.544261783689   0.0000   0.0000   0.0000   0.0000
Elct. dipole 1  -29.549459  Ionic dipole 1   15.739387
   3108    0.000000161425218    0.0    0.02   -2898.530477483016   -2898.544288244025   -2898.544262680090   -2898.544262518665   0.0000   0.0000   0.0000   0.0000
Elct. dipole 1  -29.551089  Ionic dipole 1   15.740328
   3109    0.000000096777548    0.0    0.02   -2898.530477607816   -2898.544288932948   -2898.544263237102   -2898.544263140324   0.0000   0.0000   0.0000   0.0000
Elct. dipole 1  -29.552631  Ionic dipole 1   15.741306
   3110    0.000000085721265    0.0    0.02   -2898.530477633946   -2898.544289415476   -2898.544263646075   -2898.544263560354   0.0000   0.0000   0.0000   0.0000
Elct. dipole 1  -29.554089  Ionic dipole 1   15.742307
   3111    0.000000120338971    0.0    0.02   -2898.530477699277   -2898.544289874126   -2898.544264087719   -2898.544263967380   0.0000   0.0000   0.0000   0.0000
Elct. dipole 1  -29.555488  Ionic dipole 1   15.743313
   3112    0.000000180959899    0.0    0.02   -2898.530477805502   -2898.544290352564   -2898.544264575723   -2898.544264394764   0.0000   0.0000   0.0000   0.0000
Elct. dipole 1  -29.556857  Ionic dipole 1   15.744310
   3113    0.000000234244384    0.0    0.02   -2898.530477869378   -2898.544290787088   -2898.544265010762   -2898.544264776518   0.0000   0.0000   0.0000   0.0000
Elct. dipole 1  -29.558209  Ionic dipole 1   15.745291
   3114    0.000000253468677    0.0    0.02   -2898.530478002447   -2898.544291276410   -2898.544265469701   -2898.544265216232   0.0000   0.0000   0.0000   0.0000
Elct. dipole 1  -29.559537  Ionic dipole 1   15.746263
   3115    0.000000236278225    0.0    0.02   -2898.530478098268   -2898.544291672022   -2898.544265801901   -2898.544265565622   0.0000   0.0000   0.0000   0.0000
Elct. dipole 1  -29.560808  Ionic dipole 1   15.747234
   3116    0.000000200379918    0.0    0.02   -2898.530478244565   -2898.544292011546   -2898.544266057448   -2898.544265857068   0.0000   0.0000   0.0000   0.0000
Elct. dipole 1  -29.561982  Ionic dipole 1   15.748215
   3117    0.000000167035415    0.0    0.02   -2898.530478309789   -2898.544292140477   -2898.544266099633   -2898.544265932598   0.0000   0.0000   0.0000   0.0000
Elct. dipole 1  -29.563041  Ionic dipole 1   15.749210
   3118    0.000000149347935    0.0    0.02   -2898.530478365772   -2898.544292164473   -2898.544266048510   -2898.544265899162   0.0000   0.0000   0.0000   0.0000
Elct. dipole 1  -29.564018  Ionic dipole 1   15.750220
   3119    0.000000149993112    0.0    0.02   -2898.530478482745   -2898.544292245058   -2898.544266071133   -2898.544265921140   0.0000   0.0000   0.0000   0.0000
Elct. dipole 1  -29.565001  Ionic dipole 1   15.751239
   3120    0.000000163724244    0.0    0.02   -2898.530478567739   -2898.544292400649   -2898.544266182187   -2898.544266018463   0.0000   0.0000   0.0000   0.0000
Elct. dipole 1  -29.566095  Ionic dipole 1   15.752262
   3121    0.000000181072006    0.0    0.02   -2898.530478717370   -2898.544292800561   -2898.544266542185   -2898.544266361112   0.0000   0.0000   0.0000   0.0000
Elct. dipole 1  -29.567370  Ionic dipole 1   15.753286
   3122    0.000000193234102    0.0    0.02   -2898.530478787785   -2898.544293290744   -2898.544266988786   -2898.544266795552   0.0000   0.0000   0.0000   0.0000
Elct. dipole 1  -29.568812  Ionic dipole 1   15.754309
   3123    0.000000196554514    0.0    0.02   -2898.530478856313   -2898.544293855690   -2898.544267502235   -2898.544267305680   0.0000   0.0000   0.0000   0.0000
Elct. dipole 1  -29.570331  Ionic dipole 1   15.755332
   3124    0.000000192824675    0.0    0.02   -2898.530478923187   -2898.544294368664   -2898.544267956025   -2898.544267763200   0.0000   0.0000   0.0000   0.0000
Elct. dipole 1  -29.571802  Ionic dipole 1   15.756357
   3125    0.000000185833189    0.0    0.02   -2898.530479042923   -2898.544294792402   -2898.544268316073   -2898.544268130240   0.0000   0.0000   0.0000   0.0000
Elct. dipole 1  -29.573137  Ionic dipole 1   15.757387
   3126    0.000000178874922    0.0    0.02   -2898.530479107160   -2898.544295010825   -2898.544268470351   -2898.544268291476   0.0000   0.0000   0.0000   0.0000
Elct. dipole 1  -29.574328  Ionic dipole 1   15.758425
   3127    0.000000174668874    0.0    0.02   -2898.530479224860   -2898.544295208947   -2898.544268606950   -2898.544268432281   0.0000   0.0000   0.0000   0.0000
Elct. dipole 1  -29.575453  Ionic dipole 1   15.759469
   3128    0.000000174892430    0.0    0.02   -2898.530479344241   -2898.544295446987   -2898.544268787176   -2898.544268612283   0.0000   0.0000   0.0000   0.0000
Elct. dipole 1  -29.576623  Ionic dipole 1   15.760520
   3129    0.000000178761437    0.0    0.02   -2898.530479466539   -2898.544295808877   -2898.544269094168   -2898.544268915406   0.0000   0.0000   0.0000   0.0000
Elct. dipole 1  -29.577917  Ionic dipole 1   15.761575
   3130    0.000000183342116    0.0    0.02   -2898.530479644705   -2898.544296357208   -2898.544269588751   -2898.544269405409   0.0000   0.0000   0.0000   0.0000
Elct. dipole 1  -29.579346  Ionic dipole 1   15.762633
   3131    0.000000186066796    0.0    0.02   -2898.530479741165   -2898.544296892548   -2898.544270069794   -2898.544269883727   0.0000   0.0000   0.0000   0.0000
Elct. dipole 1  -29.580845  Ionic dipole 1   15.763693
   3132    0.000000186480349    0.0    0.02   -2898.530479862801   -2898.544297430661   -2898.544270552107   -2898.544270365627   0.0000   0.0000   0.0000   0.0000
Elct. dipole 1  -29.582325  Ionic dipole 1   15.764757
   3133    0.000000185603858    0.0    0.02   -2898.530479955502   -2898.544297851640   -2898.544270915786   -2898.544270730182   0.0000   0.0000   0.0000   0.0000
Elct. dipole 1  -29.583720  Ionic dipole 1   15.765824
   3134    0.000000184542401    0.0    0.02   -2898.530480019820   -2898.544298149441   -2898.544271155542   -2898.544270970999   0.0000   0.0000   0.0000   0.0000
Elct. dipole 1  -29.585026  Ionic dipole 1   15.766896
   3135    0.000000183892409    0.0    0.02   -2898.530480138318   -2898.544298454827   -2898.544271403144   -2898.544271219251   0.0000   0.0000   0.0000   0.0000
Elct. dipole 1  -29.586291  Ionic dipole 1   15.767974
   3136    0.000000183791419    0.0    0.02   -2898.530480258245   -2898.544298782565   -2898.544271674078   -2898.544271490286   0.0000   0.0000   0.0000   0.0000
Elct. dipole 1  -29.587582  Ionic dipole 1   15.769057
   3137    0.000000184202363    0.0    0.02   -2898.530480352755   -2898.544299151186   -2898.544271987043   -2898.544271802840   0.0000   0.0000   0.0000   0.0000
Elct. dipole 1  -29.588943  Ionic dipole 1   15.770145
   3138    0.000000185096000    0.0    0.02   -2898.530480475284   -2898.544299615314   -2898.544272396373   -2898.544272211277   0.0000   0.0000   0.0000   0.0000
Elct. dipole 1  -29.590376  Ionic dipole 1   15.771236
   3139    0.000000186226876    0.0    0.02   -2898.530480542915   -2898.544300056350   -2898.544272783070   -2898.544272596843   0.0000   0.0000   0.0000   0.0000
Elct. dipole 1  -29.591844  Ionic dipole 1   15.772330
   3140    0.000000187087494    0.0    0.02   -2898.530480662087   -2898.544300535264   -2898.544273207920   -2898.544273020832   0.0000   0.0000   0.0000   0.0000
Elct. dipole 1  -29.593302  Ionic dipole 1   15.773429
   3141    0.000000187525446    0.0    0.02   -2898.530480697410   -2898.544300888340   -2898.544273507361   -2898.544273319836   0.0000   0.0000   0.0000   0.0000
Elct. dipole 1  -29.594722  Ionic dipole 1   15.774531
   3142    0.000000188071990    0.0    0.02   -2898.530480683714   -2898.544301150257   -2898.544273716435   -2898.544273528363   0.0000   0.0000   0.0000   0.0000
Elct. dipole 1  -29.596106  Ionic dipole 1   15.775639
   3143    0.000000189284072    0.0    0.02   -2898.530480713307   -2898.544301434126   -2898.544273948545   -2898.544273759261   0.0000   0.0000   0.0000   0.0000
Elct. dipole 1  -29.597472  Ionic dipole 1   15.776751
   3144    0.000000191049744    0.0    0.02   -2898.530480831912   -2898.544301811471   -2898.544274275174   -2898.544274084124   0.0000   0.0000   0.0000   0.0000
Elct. dipole 1  -29.598848  Ionic dipole 1   15.777868
   3145    0.000000192707044    0.0    0.02   -2898.530480924082   -2898.544302184605   -2898.544274598245   -2898.544274405539   0.0000   0.0000   0.0000   0.0000
Elct. dipole 1  -29.600249  Ionic dipole 1   15.778988
   3146    0.000000193575497    0.0    0.02   -2898.530480988125   -2898.544302557460   -2898.544274921173   -2898.544274727597   0.0000   0.0000   0.0000   0.0000
Elct. dipole 1  -29.601681  Ionic dipole 1   15.780112
   3147    0.000000193397131    0.0    0.02   -2898.530481103974   -2898.544303006101   -2898.544275319745   -2898.544275126348   0.0000   0.0000   0.0000   0.0000
Elct. dipole 1  -29.603141  Ionic dipole 1   15.781239
   3148    0.000000192536506    0.0    0.02   -2898.530481190685   -2898.544303440341   -2898.544275703947   -2898.544275511411   0.0000   0.0000   0.0000   0.0000
Elct. dipole 1  -29.604619  Ionic dipole 1   15.782370
   3149    0.000000191730470    0.0    0.02   -2898.530481321737   -2898.544303921886   -2898.544276136096   -2898.544275944365   0.0000   0.0000   0.0000   0.0000
Elct. dipole 1  -29.606106  Ionic dipole 1   15.783505
   3150    0.000000191581308    0.0    0.02   -2898.530481415770   -2898.544304357559   -2898.544276523786   -2898.544276332204   0.0000   0.0000   0.0000   0.0000
Elct. dipole 1  -29.607588  Ionic dipole 1   15.784646
   3151    0.000000192369499    0.0    0.02   -2898.530481555278   -2898.544304822315   -2898.544276942548   -2898.544276750179   0.0000   0.0000   0.0000   0.0000
Elct. dipole 1  -29.609059  Ionic dipole 1   15.785792
   3152    0.000000194136147    0.0    0.02   -2898.530481640696   -2898.544305217215   -2898.544277293533   -2898.544277099396   0.0000   0.0000   0.0000   0.0000
Elct. dipole 1  -29.610518  Ionic dipole 1   15.786942
   3153    0.000000196544725    0.0    0.02   -2898.530481681111   -2898.544305561288   -2898.544277595326   -2898.544277398782   0.0000   0.0000   0.0000   0.0000
Elct. dipole 1  -29.611975  Ionic dipole 1   15.788095
   3154    0.000000198763135    0.0    0.02   -2898.530481755113   -2898.544305947644   -2898.544277940304   -2898.544277741541   0.0000   0.0000   0.0000   0.0000
Elct. dipole 1  -29.613444  Ionic dipole 1   15.789252
   3155    0.000000199927555    0.0    0.02   -2898.530481782838   -2898.544306307560   -2898.544278259083   -2898.544278059155   0.0000   0.0000   0.0000   0.0000
Elct. dipole 1  -29.614936  Ionic dipole 1   15.790412
   3156    0.000000199817950    0.0    0.02   -2898.530481858933   -2898.544306736290   -2898.544278646657   -2898.544278446839   0.0000   0.0000   0.0000   0.0000
Elct. dipole 1  -29.616452  Ionic dipole 1   15.791575
   3157    0.000000198934721    0.0    0.02   -2898.530481930413   -2898.544307171093   -2898.544279040547   -2898.544278841612   0.0000   0.0000   0.0000   0.0000
Elct. dipole 1  -29.617983  Ionic dipole 1   15.792743
   3158    0.000000198006806    0.0    0.02   -2898.530482020671   -2898.544307622466   -2898.544279451892   -2898.544279253885   0.0000   0.0000   0.0000   0.0000
Elct. dipole 1  -29.619517  Ionic dipole 1   15.793915
   3159    0.000000197589324    0.0    0.02   -2898.530482067567   -2898.544308019729   -2898.544279810741   -2898.544279613151   0.0000   0.0000   0.0000   0.0000
Elct. dipole 1  -29.621044  Ionic dipole 1   15.795092
   3160    0.000000197977846    0.0    0.02   -2898.530482128668   -2898.544308421669   -2898.544280176365   -2898.544279978387   0.0000   0.0000   0.0000   0.0000
Elct. dipole 1  -29.622567  Ionic dipole 1   15.796273
   3161    0.000000199191012    0.0    0.02   -2898.530482208794   -2898.544308840691   -2898.544280561240   -2898.544280362049   0.0000   0.0000   0.0000   0.0000
Elct. dipole 1  -29.624091  Ionic dipole 1   15.797459
   3162    0.000000200923436    0.0    0.02   -2898.530482226175   -2898.544309203543   -2898.544280891814   -2898.544280690890   0.0000   0.0000   0.0000   0.0000
Elct. dipole 1  -29.625625  Ionic dipole 1   15.798648
   3163    0.000000202638799    0.0    0.02   -2898.530482289692   -2898.544309623362   -2898.544281280749   -2898.544281078110   0.0000   0.0000   0.0000   0.0000
Elct. dipole 1  -29.627174  Ionic dipole 1   15.799841
   3164    0.000000203858905    0.0    0.02   -2898.530482352988   -2898.544310052880   -2898.544281680378   -2898.544281476519   0.0000   0.0000   0.0000   0.0000
Elct. dipole 1  -29.628736  Ionic dipole 1   15.801036
   3165    0.000000204410365    0.0    0.02   -2898.530482556391   -2898.544310628744   -2898.544282227165   -2898.544282022755   0.0000   0.0000   0.0000   0.0000
Elct. dipole 1  -29.630308  Ionic dipole 1   15.802236
   3166    0.000000204421214    0.0    0.02   -2898.530482630611   -2898.544311078266   -2898.544282648482   -2898.544282444061   0.0000   0.0000   0.0000   0.0000
Elct. dipole 1  -29.631887  Ionic dipole 1   15.803439
   3167    0.000000204149014    0.0    0.02   -2898.530482733305   -2898.544311557269   -2898.544283100378   -2898.544282896229   0.0000   0.0000   0.0000   0.0000
Elct. dipole 1  -29.633470  Ionic dipole 1   15.804646
   3168    0.000000203846995    0.0    0.02   -2898.530482724241   -2898.544311924801   -2898.544283442188   -2898.544283238341   0.0000   0.0000   0.0000   0.0000
Elct. dipole 1  -29.635058  Ionic dipole 1   15.805858
   3169    0.000000203727494    0.0    0.02   -2898.530482815600   -2898.544312392751   -2898.544283886068   -2898.544283682341   0.0000   0.0000   0.0000   0.0000
Elct. dipole 1  -29.636650  Ionic dipole 1   15.807073
   3170    0.000000203948821    0.0    0.02   -2898.530482901268   -2898.544312855348   -2898.544284326448   -2898.544284122499   0.0000   0.0000   0.0000   0.0000
Elct. dipole 1  -29.638247  Ionic dipole 1   15.808293
   3171    0.000000204575425    0.0    0.02   -2898.530482930020   -2898.544313262910   -2898.544284713740   -2898.544284509165   0.0000   0.0000   0.0000   0.0000
Elct. dipole 1  -29.639849  Ionic dipole 1   15.809517
   3172    0.000000205532747    0.0    0.02   -2898.530483041495   -2898.544313757551   -2898.544285190035   -2898.544284984503   0.0000   0.0000   0.0000   0.0000
Elct. dipole 1  -29.641460  Ionic dipole 1   15.810744
   3173    0.000000206610562    0.0    0.02   -2898.530483155818   -2898.544314261280   -2898.544285677191   -2898.544285470580   0.0000   0.0000   0.0000   0.0000
Elct. dipole 1  -29.643080  Ionic dipole 1   15.811974
   3174    0.000000207541383    0.0    0.02   -2898.530483270854   -2898.544314771622   -2898.544286172506   -2898.544285964964   0.0000   0.0000   0.0000   0.0000
Elct. dipole 1  -29.644709  Ionic dipole 1   15.813208
   3175    0.000000208117801    0.0    0.02   -2898.530483330411   -2898.544315229778   -2898.544286616969   -2898.544286408851   0.0000   0.0000   0.0000   0.0000
Elct. dipole 1  -29.646345  Ionic dipole 1   15.814446
   3176    0.000000208277733    0.0    0.02   -2898.530483386791   -2898.544315685077   -2898.544287059819   -2898.544286851542   0.0000   0.0000   0.0000   0.0000
Elct. dipole 1  -29.647985  Ionic dipole 1   15.815687
   3177    0.000000208122091    0.0    0.02   -2898.530483466044   -2898.544316162677   -2898.544287526293   -2898.544287318171   0.0000   0.0000   0.0000   0.0000
Elct. dipole 1  -29.649628  Ionic dipole 1   15.816931
   3178    0.000000207871891    0.0    0.02   -2898.530483541558   -2898.544316637997   -2898.544287992035   -2898.544287784163   0.0000   0.0000   0.0000   0.0000
Elct. dipole 1  -29.651276  Ionic dipole 1   15.818180
   3179    0.000000207773953    0.0    0.02   -2898.530483641703   -2898.544317142828   -2898.544288489097   -2898.544288281323   0.0000   0.0000   0.0000   0.0000
Elct. dipole 1  -29.652934  Ionic dipole 1   15.819433
   3180    0.000000207981772    0.0    0.02   -2898.530483660200   -2898.544317572977   -2898.544288913471   -2898.544288705489   0.0000   0.0000   0.0000   0.0000
Elct. dipole 1  -29.654602  Ionic dipole 1   15.820689
   3181    0.000000208483104    0.0    0.02   -2898.530483679324   -2898.544318009869   -2898.544289346613   -2898.544289138130   0.0000   0.0000   0.0000   0.0000
Elct. dipole 1  -29.656279  Ionic dipole 1   15.821949
   3182    0.000000209129578    0.0    0.02   -2898.530483672391   -2898.544318423847   -2898.544289758763   -2898.544289549634   0.0000   0.0000   0.0000   0.0000
Elct. dipole 1  -29.657963  Ionic dipole 1   15.823212
   3183    0.000000209736078    0.0    0.02   -2898.530483691389   -2898.544318864274   -2898.544290199120   -2898.544289989383   0.0000   0.0000   0.0000   0.0000
Elct. dipole 1  -29.659651  Ionic dipole 1   15.824478
   3184    0.000000210171264    0.0    0.02   -2898.530483679976   -2898.544319274588   -2898.544290610985   -2898.544290400814   0.0000   0.0000   0.0000   0.0000
Elct. dipole 1  -29.661343  Ionic dipole 1   15.825748
   3185    0.000000210396992    0.0    0.02   -2898.530483717949   -2898.544319736714   -2898.544291076234   -2898.544290865837   0.0000   0.0000   0.0000   0.0000
Elct. dipole 1  -29.663040  Ionic dipole 1   15.827022
   3186    0.000000210457446    0.0    0.02   -2898.530483752046   -2898.544320200009   -2898.544291544257   -2898.544291333800   0.0000   0.0000   0.0000   0.0000
Elct. dipole 1  -29.664746  Ionic dipole 1   15.828298
   3187    0.000000210436502    0.0    0.02   -2898.530483811643   -2898.544320694938   -2898.544292045598   -2898.544291835162   0.0000   0.0000   0.0000   0.0000
Elct. dipole 1  -29.666462  Ionic dipole 1   15.829579
   3188    0.000000210411736    0.0    0.02   -2898.530483790870   -2898.544321114626   -2898.544292473466   -2898.544292263054   0.0000   0.0000   0.0000   0.0000
Elct. dipole 1  -29.668186  Ionic dipole 1   15.830862
   3189    0.000000210435000    0.0    0.02   -2898.530483825265   -2898.544321592694   -2898.544292961545   -2898.544292751110   0.0000   0.0000   0.0000   0.0000
Elct. dipole 1  -29.669917  Ionic dipole 1   15.832149
   3190    0.000000210534363    0.0    0.02   -2898.530483913528   -2898.544322126680   -2898.544293507412   -2898.544293296877   0.0000   0.0000   0.0000   0.0000
Elct. dipole 1  -29.671653  Ionic dipole 1   15.833440
   3191    0.000000210719245    0.0    0.02   -2898.530483971082   -2898.544322632347   -2898.544294026853   -2898.544293816134   0.0000   0.0000   0.0000   0.0000
Elct. dipole 1  -29.673395  Ionic dipole 1   15.834734
   3192    0.000000210978996    0.0    0.02   -2898.530483996785   -2898.544323109780   -2898.544294519949   -2898.544294308970   0.0000   0.0000   0.0000   0.0000
Elct. dipole 1  -29.675144  Ionic dipole 1   15.836031
   3193    0.000000211274025    0.0    0.02   -2898.530483991932   -2898.544323561125   -2898.544294988808   -2898.544294777535   0.0000   0.0000   0.0000   0.0000
Elct. dipole 1  -29.676901  Ionic dipole 1   15.837332
   3194    0.000000211535935    0.0    0.02   -2898.530483983823   -2898.544324013443   -2898.544295460425   -2898.544295248889   0.0000   0.0000   0.0000   0.0000
Elct. dipole 1  -29.678665  Ionic dipole 1   15.838635
   3195    0.000000211689852    0.0    0.02   -2898.530484032583   -2898.544324525800   -2898.544295993785   -2898.544295782095   0.0000   0.0000   0.0000   0.0000
Elct. dipole 1  -29.680435  Ionic dipole 1   15.839942
   3196    0.000000211692080    0.0    0.02   -2898.530484095852   -2898.544325055203   -2898.544296545839   -2898.544296334147   0.0000   0.0000   0.0000   0.0000
Elct. dipole 1  -29.682211  Ionic dipole 1   15.841252
   3197    0.000000211560155    0.0    0.02   -2898.530484127215   -2898.544325555275   -2898.544297070215   -2898.544296858655   0.0000   0.0000   0.0000   0.0000
Elct. dipole 1  -29.683993  Ionic dipole 1   15.842565
   3198    0.000000211372309    0.0    0.02   -2898.530484173543   -2898.544326073948   -2898.544297614912   -2898.544297403540   0.0000   0.0000   0.0000   0.0000
Elct. dipole 1  -29.685781  Ionic dipole 1   15.843881
   3199    0.000000211235191    0.0    0.02   -2898.530484168025   -2898.544326545103   -2898.544298113912   -2898.544297902677   0.0000   0.0000   0.0000   0.0000
Elct. dipole 1  -29.687578  Ionic dipole 1   15.845200

 * Physical Quantities at step:  3200

   from rhoofr: total integrated electronic density
   in g-space =   1236.000000   in r-space =  1236.000000
     Total Electronic Pressure (GPa)       41.05907   3200
     Pressure of Nuclei (GPa)             0.00003   3200
     Pressure Total (GPa)             0.05088   3200


                total energy =    -2898.53048414941 Hartree a.u.
              kinetic energy =     1316.43561 Hartree a.u.
        electrostatic energy =    -3924.26978 Hartree a.u.
                         esr =        0.00000 Hartree a.u.
                       eself =     5562.85116 Hartree a.u.
      pseudopotential energy =      261.77426 Hartree a.u.
  n-l pseudopotential energy =      193.28308 Hartree a.u.
 exchange-correlation energy =     -745.76751 Hartree a.u.
           average potential =        0.00000 Hartree a.u.



   Eigenvalues (eV), kp =   1 , spin =  1

  -12.76  -12.59  -12.51  -12.50  -12.40  -12.40  -12.39  -12.31  -12.27  -12.26
  -12.26  -12.25  -12.19  -12.19  -12.18  -12.15  -12.14  -12.10  -12.09  -12.06
  -12.04  -12.04  -12.01  -11.97  -11.97  -11.97  -11.97  -11.93  -11.89  -11.84
  -11.83  -11.83  -11.80  -11.79  -11.79  -11.77  -11.74  -11.74  -11.73  -11.71
  -11.70  -11.69  -11.68  -11.68  -11.67  -11.67  -11.66  -11.65  -11.65  -11.63
  -11.62  -11.60  -11.59  -11.59  -11.58  -11.57  -11.56  -11.56  -11.56  -11.55
  -11.55  -11.55  -11.54  -11.53  -11.53  -11.52  -11.52  -11.52  -11.51  -11.51
  -11.51  -11.51  -11.50  -11.48  -11.48  -11.48  -11.47  -11.47  -11.45  -11.45
  -11.44  -11.44  -11.44  -11.43  -11.42  -11.42  -11.41  -11.41  -11.40  -11.40
  -11.40  -11.40  -11.39  -11.39  -11.39  -11.38  -11.38  -11.38  -11.37  -11.36
  -11.36  -11.36  -11.36  -11.35  -11.35  -11.34  -11.34  -11.33  -11.31  -11.28
  -11.27  -11.27  -11.26  -11.26  -11.25  -11.25  -11.25  -11.24  -11.23  -11.23
  -11.22  -11.22  -11.22  -11.22  -11.21  -11.18  -11.17  -11.15  -11.15  -11.15
  -11.14  -11.13  -11.12  -11.11  -11.11  -11.11  -11.11  -11.03   -1.25   -0.87
   -0.82   -0.76   -0.73   -0.72   -0.66   -0.59   -0.55   -0.53   -0.51   -0.47
   -0.38   -0.34   -0.33   -0.31   -0.27   -0.26   -0.24   -0.21   -0.20   -0.19
   -0.15   -0.15   -0.15   -0.14   -0.14   -0.12   -0.09   -0.08   -0.07   -0.07
   -0.06   -0.05   -0.04   -0.03   -0.02    0.01    0.02    0.02    0.03    0.04
    0.05    0.06    0.08    0.08    0.09    0.11    0.11    0.11    0.12    0.12
    0.13    0.14    0.14    0.16    0.17    0.18    0.20    0.21    0.23    0.24
    0.24    0.25    0.25    0.27    0.28    0.32    0.32    0.37    0.37    0.38
    0.38    0.39    0.40    0.41    0.41    0.43    0.44    0.45    0.45    0.47
    0.47    0.48    0.49    0.49    0.50    0.53    0.53    0.53    0.53    0.54
    0.54    0.56    0.57    0.57    0.57    0.57    0.57    0.59    0.60    0.60
    0.60    0.62    0.62    0.63    0.63    0.64    0.65    0.65    0.66    0.67
    0.67    0.68    0.69    0.71    0.72    0.73    0.74    0.74    0.76    0.76
    0.77    0.79    0.79    0.79    0.80    0.81    0.81    0.82    0.84    0.87
    0.89    0.89    0.90    0.90    0.92    0.92    0.93    0.94    0.94    0.95
    0.97    0.98    0.99    1.03    1.04    1.06    1.08    1.09    1.10    1.10
    1.13    1.14    1.15    1.16    1.17    1.20    1.23    1.26    1.26    1.32
    1.32    1.32    1.35    1.36    1.38    1.46    1.48    1.48    1.48    1.50
    1.52    1.53    1.54    1.55    1.57    1.58    1.59    1.59    1.63    1.63
    1.65    1.66    1.69    1.69    1.73    1.74    1.76    1.76    1.78    1.79
    1.79    1.80    1.80    1.84    1.84    1.85    1.86    1.88    1.88    1.90
    1.90    1.92    1.93    1.97    1.97    1.98    1.98    2.01    2.05    2.07
    2.11    2.13    2.13    2.14    2.17    2.17    2.17    2.18    2.20    2.20
    2.22    2.22    2.22    2.23    2.24    2.27    2.27    2.27    2.28    2.33
    2.34    2.35    2.35    2.36    2.37    2.37    2.38    2.40    2.41    2.42
    2.43    2.44    2.44    2.45    2.45    2.45    2.48    2.48    2.50    2.50
    2.51    2.51    2.53    2.53    2.54    2.54    2.55    2.55    2.56    2.57
    2.57    2.57    2.59    2.61    2.62    2.62    2.62    2.62    2.64    2.65
    2.66    2.66    2.66    2.66    2.67    2.68    2.68    2.69    2.69    2.70
    2.70    2.71    2.73    2.73    2.74    2.75    2.76    2.77    2.78    2.79
    2.80    2.80    2.81    2.82    2.83    2.85    2.85    2.86    2.87    2.90
    2.90    2.91    2.91    2.91    2.93    2.93    2.94    2.95    2.96    2.97
    2.98    2.98    3.00    3.01    3.01    3.01    3.01    3.02    3.03    3.04
    3.04    3.05    3.05    3.07    3.07    3.08    3.08    3.09    3.10    3.10
    3.10    3.10    3.11    3.12    3.12    3.13    3.13    3.14    3.15    3.15
    3.17    3.18    3.18    3.18    3.19    3.19    3.20    3.20    3.21    3.21
    3.23    3.23    3.23    3.23    3.23    3.24    3.26    3.26    3.27    3.27
    3.27    3.28    3.29    3.29    3.29    3.29    3.30    3.31    3.32    3.32
    3.32    3.33    3.34    3.34    3.35    3.36    3.36    3.37    3.38    3.38
    3.39    3.40    3.41    3.41    3.41    3.43    3.44    3.44    3.44    3.46
    3.46    3.47    3.47    3.48    3.49    3.49    3.50    3.50    3.51    3.51
    3.52    3.53    3.53    3.53    3.54    3.55    3.56    3.57    3.58    3.59
    3.59    3.59    3.59    3.60    3.62    3.62    3.63    3.64    3.65    3.65
    3.65    3.65    3.65    3.66    3.67    3.68    3.68    3.69    3.72    3.72
    3.74    3.74    3.75    3.75    3.76    3.79    3.79    3.79    3.80    3.81
    3.84    3.85    3.85    3.86    3.87    3.87    3.89    3.90    3.91    3.92
    3.92    3.92    3.93    3.93    3.95    3.97    3.98    3.98    4.00    4.04
    4.05    4.05    4.16    4.18    4.19    4.37    4.39    4.41    4.45    4.50
    4.51    4.60    4.60    4.79    6.03    6.05    6.27    6.66
 
 
   CELL_PARAMETERS
   24.54239043    0.00076274    0.00000017
    0.00076273   24.54229147    0.00000114
    0.00000023    0.00000151   32.45460242

   System Density [g/cm^3] :              3.9303362633


   System Volume [A.U.^3] :          19548.2670367029


   Center of mass square displacement (a.u.):   0.000000

   Total stress (GPa)
       -0.01004196         0.02250256         0.00013998
        0.02250256        -0.00998061         0.00010822
        0.00013998         0.00010822         0.17264817
   ATOMIC_POSITIONS
   Ag      0.21327883244927E+01     0.13896890181919E+02     0.18304524634247E+02
   Ag      0.55989270352512E+01     0.10430371047595E+02     0.18304538852081E+02
   Ag      0.67396578009275E+01     0.15037088865028E+02     0.18680388864755E+02
   Ag      0.99204940463624E+00     0.92901116831971E+01     0.18680259191187E+02
   Ag      0.21510744067103E+01     0.10449036807680E+02     0.14102458505774E+02
   Ag      0.21289076040657E+01     0.13900044895703E+02     0.99124425404104E+01
   Ag      0.56019417456585E+01     0.10426497036515E+02     0.99123399060242E+01
   Ag      0.67229780463522E+01     0.15020404510292E+02     0.95044192019175E+01
   Ag      0.69445499755884E+01     0.90858149698903E+01     0.14117948968676E+02
   Ag      0.78793746963573E+00     0.15242514795148E+02     0.14118026754900E+02
   Ag      0.55810370771493E+01     0.13878820000730E+02     0.14102305958538E+02
   Ag      0.10078143979530E+01     0.93060333954096E+01     0.95050917795624E+01
   Mg      0.22240136187751E+02     0.22394050583729E+02     0.26232240592976E+02
   Mg      0.22237855148207E+02     0.18334245970250E+02     0.30264596002894E+02
   Mg      0.18172510072012E+02     0.22399774017104E+02     0.30252565602142E+02
   Mg      0.18178361903597E+02     0.18332101391699E+02     0.26232268815909E+02
   Mg      0.22166532778906E+02     0.22439216111328E+02     0.18153064562629E+02
   Mg      0.22274049748785E+02     0.18298462961441E+02     0.22179374830708E+02
   Mg      0.18173566868239E+02     0.22399191162039E+02     0.22212626301655E+02
   Mg      0.18133619159515E+02     0.18406674990585E+02     0.18153105083105E+02
   Mg      0.22171259414700E+02     0.22439620039186E+02     0.98828421566718E+01
   Mg      0.21967244871193E+02     0.18605149599633E+02     0.14000657094980E+02
   Mg      0.18113726775224E+02     0.22459453128632E+02     0.14022263252684E+02
   Mg      0.18132977417682E+02     0.18401826860247E+02     0.98828064579811E+01
   Mg      0.22239771152605E+02     0.22393620064836E+02     0.18213637921054E+01
   Mg      0.22277281952309E+02     0.18295059936114E+02     0.58765754931781E+01
   Mg      0.18174223857755E+02     0.22398370505605E+02     0.58338450981261E+01
   Mg      0.18178718412205E+02     0.18332363176294E+02     0.18213229825460E+01
   Mg      0.22179911618018E+02     0.14235739346419E+02     0.26323173502652E+02
   Mg      0.22176394279142E+02     0.10095499921305E+02     0.30265596987654E+02
   Mg      0.18155486006854E+02     0.14230420134707E+02     0.30260493753372E+02
   Mg      0.18143442600323E+02     0.10091833907116E+02     0.26271552720345E+02
   Mg      0.21813288306288E+02     0.14180389206555E+02     0.18095667193767E+02
   Mg      0.22141503205572E+02     0.10141282712178E+02     0.22331613171314E+02
   Mg      0.18140811653937E+02     0.14236156454566E+02     0.22268869591655E+02
   Mg      0.17985847344627E+02     0.10016266494065E+02     0.18209327125904E+02
   Mg      0.21828314637114E+02     0.14185715969682E+02     0.99309663450188E+01
   Mg      0.21786746826914E+02     0.10132661334094E+02     0.13988052391450E+02
   Mg      0.17917339901640E+02     0.14327867296998E+02     0.14028057151056E+02
   Mg      0.17967178621438E+02     0.10015571274637E+02     0.98400109045182E+01
   Mg      0.22188853297514E+02     0.14230417002885E+02     0.17635877951687E+01
   Mg      0.22158161329593E+02     0.10141581278557E+02     0.57667497863475E+01
   Mg      0.18143856186734E+02     0.14230425671505E+02     0.57715127309428E+01
   Mg      0.18149481585752E+02     0.10097006448782E+02     0.17895939107264E+01
   Mg      0.22236361929758E+02     0.59924550749117E+01     0.26253192309489E+02
   Mg      0.22238961066567E+02     0.19215885093257E+01     0.30259562452891E+02
   Mg      0.18165543294160E+02     0.59950598618733E+01     0.30259550860737E+02
   Mg      0.18169482723788E+02     0.19255204139891E+01     0.26235144357300E+02
   Mg      0.22076726261092E+02     0.58329078996090E+01     0.18076242548142E+02
   Mg      0.22234438887138E+02     0.19175800280523E+01     0.22211306111949E+02
   Mg      0.18161434440397E+02     0.59905279193060E+01     0.22211312381680E+02
   Mg      0.18137380494425E+02     0.18934553948738E+01     0.18144610156839E+02
   Mg      0.22072518487500E+02     0.58287095421585E+01     0.99314148781590E+01
   Mg      0.22163644829808E+02     0.18871133774144E+01     0.14014798144416E+02
   Mg      0.18130966120303E+02     0.59196251588479E+01     0.14014805229726E+02
   Mg      0.18134146779839E+02     0.18902011403658E+01     0.98898275100196E+01
   Mg      0.22241432561367E+02     0.59974415997398E+01     0.18240069345705E+01
   Mg      0.22239607674291E+02     0.19136571450769E+01     0.58325395812448E+01
   Mg      0.18157507907892E+02     0.59956205809405E+01     0.58325235037911E+01
   Mg      0.18169973536168E+02     0.19259839850757E+01     0.18189967248892E+01
   Mg      0.14104666516353E+02     0.22402170970217E+02     0.26235188105858E+02
   Mg      0.14108453115320E+02     0.18332386879774E+02     0.30259553538743E+02
   Mg      0.10034879693385E+02     0.22405971250261E+02     0.30259553957625E+02
   Mg      0.10037573574088E+02     0.18335147294807E+02     0.26253269157062E+02
   Mg      0.14137342371253E+02     0.22434955049643E+02     0.18144680498971E+02
   Mg      0.14112916030402E+02     0.18337464190567E+02     0.22211426072310E+02
   Mg      0.10039897057644E+02     0.22410468621132E+02     0.22211439020009E+02
   Mg      0.10197754191758E+02     0.18495336568313E+02     0.18076586811872E+02
   Mg      0.14140344898879E+02     0.22437982150312E+02     0.98897793931962E+01
   Mg      0.14143443400278E+02     0.18408829532952E+02     0.14014807278791E+02
   Mg      0.10111214768476E+02     0.22441096924581E+02     0.14014812276294E+02
   Mg      0.10201432164518E+02     0.18499029740193E+02     0.99312484328439E+01
   Mg      0.14104081932821E+02     0.22401568680015E+02     0.18189656845150E+01
   Mg      0.14116550121588E+02     0.18332079223205E+02     0.58324453855193E+01
   Mg      0.10034514524138E+02     0.22414046668486E+02     0.58324258487948E+01
   Mg      0.10032366827199E+02     0.18329949529739E+02     0.18238571748945E+01
   Mg      0.14130592808756E+02     0.14235555069689E+02     0.26271588591614E+02
   Mg      0.14118394296580E+02     0.10096719505312E+02     0.30260486432669E+02
   Mg      0.10097274709126E+02     0.14231649710797E+02     0.30265550593663E+02
   Mg      0.10093922007661E+02     0.10091670984342E+02     0.26323151810094E+02
   Mg      0.14288544056595E+02     0.14312031098276E+02     0.18209388175721E+02
   Mg      0.14133383322422E+02     0.10091634778746E+02     0.22268853820772E+02
   Mg      0.10132640565696E+02     0.14186524900322E+02     0.22331649149180E+02
   Mg      0.10460893101967E+02     0.10148169532821E+02     0.18095718888850E+02
   Mg      0.14306537978550E+02     0.14312521345440E+02     0.98400911261400E+01
   Mg      0.14357082476646E+02     0.10000654788982E+02     0.14028137574409E+02
   Mg      0.10487662605005E+02     0.14196007170446E+02     0.13988265650985E+02
   Mg      0.10445319382939E+02     0.10142591141956E+02     0.99310841413751E+01
   Mg      0.14124369027312E+02     0.14230216374812E+02     0.17895307256875E+01
   Mg      0.14129962603376E+02     0.10097144310560E+02     0.57714701512648E+01
   Mg      0.10115624642789E+02     0.14185876958400E+02     0.57666102452530E+01
   Mg      0.10084802844959E+02     0.10096742519739E+02     0.17635480407847E+01
   Mg      0.14095703568001E+02     0.59955025220065E+01     0.26232267172307E+02
   Mg      0.14101513535018E+02     0.19277704089967E+01     0.30252558413929E+02
   Mg      0.10035896308061E+02     0.59931545171259E+01     0.30264592960047E+02
   Mg      0.10033815012803E+02     0.19336154726256E+01     0.26232270497788E+02
   Mg      0.14140686374473E+02     0.59217750201537E+01     0.18153068396917E+02
   Mg      0.14100824850513E+02     0.19288503254458E+01     0.22212622116537E+02
   Mg      0.10000070511622E+02     0.60293546063668E+01     0.22179423254948E+02
   Mg      0.10108214174349E+02     0.18888764758166E+01     0.18153120729169E+02
   Mg      0.14141062395955E+02     0.59264535459752E+01     0.98828347502612E+01
   Mg      0.14160992837390E+02     0.18690503685641E+01     0.14022271255459E+02
   Mg      0.10306670082015E+02     0.57227034310578E+01     0.14000689079185E+02
   Mg      0.10103372531344E+02     0.18882076537932E+01     0.98827966324992E+01
   Mg      0.14095246582581E+02     0.59950738511770E+01     0.18213435365826E+01
   Mg      0.14100013774077E+02     0.19294348723602E+01     0.58338348615600E+01
   Mg      0.99966554976305E+01     0.60324745499402E+01     0.58765140121370E+01
   Mg      0.10034090884990E+02     0.19339554622100E+01     0.18212955897412E+01
   Mg      0.59379431895174E+01     0.22428195834286E+02     0.26271558726533E+02
   Mg      0.59340030619200E+01     0.18394970243085E+02     0.30265534594465E+02
   Mg      0.17989675804205E+01     0.22416057384923E+02     0.30260475677905E+02
   Mg      0.17939742181413E+01     0.18391570140910E+02     0.26323146676379E+02
   Mg      0.60144228085035E+01     0.22586112048519E+02     0.18209376422233E+02
   Mg      0.58888995058271E+01     0.18430224376878E+02     0.22331590997568E+02
   Mg      0.17939260330272E+01     0.22431067281111E+02     0.22268843260404E+02
   Mg      0.18506077985704E+01     0.18758696580869E+02     0.18095660468966E+02
   Mg      0.60149097016525E+01     0.22604088821779E+02     0.98400894676849E+01
   Mg      0.58986853909065E+01     0.18785298156887E+02     0.13988297395130E+02
   Mg      0.17030009852398E+01     0.22654743280556E+02     0.14028124849799E+02
   Mg      0.18450727810048E+01     0.18743189421878E+02     0.99311100912818E+01
   Mg      0.59326107301326E+01     0.22421997423229E+02     0.17895089771350E+01
   Mg      0.58882021930326E+01     0.18413228005204E+02     0.57666187762545E+01
   Mg      0.17994568096933E+01     0.22427731250981E+02     0.57714830729077E+01
   Mg      0.17990653850713E+01     0.18382518520248E+02     0.17635762159595E+01
   Mg      0.59971939885814E+01     0.14294880650635E+02     0.26485722581379E+02
   Mg      0.59682191671055E+01     0.10060484953297E+02     0.30282454359842E+02
   Mg      0.17628554957519E+01     0.14265887902820E+02     0.30282468267931E+02
   Mg      0.17340178606657E+01     0.10031681603633E+02     0.26485740321859E+02
   Mg      0.59106982580995E+01     0.10118471915755E+02     0.22809208049235E+02
   Mg      0.18207578794285E+01     0.14208298769847E+02     0.22809205375756E+02
   Mg      0.59948887424577E+01     0.14292626959763E+02     0.16127531630038E+01
   Mg      0.58952913129850E+01     0.10133672913377E+02     0.53538872921734E+01
   Mg      0.18360034612363E+01     0.14192816060602E+02     0.53539330207071E+01
   Mg      0.17361734068245E+01     0.10033735735545E+02     0.16129051745028E+01
   Mg      0.59373526270171E+01     0.59351812989858E+01     0.26323172377494E+02
   Mg      0.59320607316776E+01     0.19107404043363E+01     0.30260468324521E+02
   Mg      0.17970440366928E+01     0.59316410017011E+01     0.30265561713020E+02
   Mg      0.17933275209697E+01     0.18987558139243E+01     0.26271507646617E+02
   Mg      0.58820271802373E+01     0.55685989309486E+01     0.18095651739580E+02
   Mg      0.59377619320610E+01     0.18961230660933E+01     0.22268874072494E+02
   Mg      0.18428091188424E+01     0.58969679487641E+01     0.22331531938220E+02
   Mg      0.17178932455430E+01     0.17413880018929E+01     0.18209317263210E+02
   Mg      0.58873908820564E+01     0.55836127842947E+01     0.99309870368656E+01
   Mg      0.60294609091374E+01     0.16726727508570E+01     0.14028033438292E+02
   Mg      0.18342591826742E+01     0.55422097951195E+01     0.13988080732886E+02
   Mg      0.17172465499845E+01     0.17227820246781E+01     0.98400019895883E+01
   Mg      0.59320448277867E+01     0.59440415602323E+01     0.17635666534304E+01
   Mg      0.59320709832741E+01     0.18991076568833E+01     0.57715073547428E+01
   Mg      0.18432436323683E+01     0.59135908309601E+01     0.57668356068975E+01
   Mg      0.17985361265757E+01     0.19048089239698E+01     0.17896047017307E+01
   O       0.18172099659754E+02     0.18326543732807E+02     0.30207943299503E+02
   O       0.18174427082218E+02     0.22397917469923E+02     0.26191148039178E+02
   O       0.22255837718731E+02     0.18316558350388E+02     0.26196178720126E+02
   O       0.22245502339380E+02     0.22400135626289E+02     0.30207945012838E+02
   O       0.18181185547260E+02     0.18328382114521E+02     0.22165685720395E+02
   O       0.18149940838479E+02     0.22423505688590E+02     0.18102361996188E+02
   O       0.22180297379797E+02     0.18392344044286E+02     0.18050290015365E+02
   O       0.22244289200068E+02     0.22391397024219E+02     0.22165542545954E+02
   O       0.18086286001241E+02     0.18445871218629E+02     0.13988514220733E+02
   O       0.18148575363794E+02     0.22424695203595E+02     0.98730747612526E+01
   O       0.22167684297765E+02     0.18405039926396E+02     0.99235886075218E+01
   O       0.22127904001389E+02     0.22486260106118E+02     0.13988576022307E+02
   O       0.18177282871923E+02     0.18339901772200E+02     0.58042270457659E+01
   O       0.18171848261162E+02     0.22400427549574E+02     0.17719158240910E+01
   O       0.22245872330913E+02     0.18326222815778E+02     0.17725148247022E+01
   O       0.22232472227374E+02     0.22395216203936E+02     0.58043657930977E+01
   O       0.18144013394060E+02     0.10099986859170E+02     0.30215476197753E+02
   O       0.18165212291337E+02     0.14226711713514E+02     0.26224236486301E+02
   O       0.22188416538301E+02     0.10104374791670E+02     0.26277886570636E+02
   O       0.22199981678840E+02     0.14225215187702E+02     0.30233586803418E+02
   O       0.18134493370537E+02     0.10099682618173E+02     0.22238972588316E+02
   O       0.18042199992180E+02     0.14312951487893E+02     0.18182439916580E+02
   O       0.21648278786506E+02     0.10152872739160E+02     0.18025873955393E+02
   O       0.22212629761726E+02     0.14209236156155E+02     0.22227274416751E+02
   O       0.18022543277346E+02     0.99834169393730E+01     0.13972618689943E+02
   O       0.18049768415619E+02     0.14317130638323E+02     0.97772724065294E+01
   O       0.21621246951185E+02     0.10136490892694E+02     0.98712179631079E+01
   O       0.21503833998245E+02     0.14120930757037E+02     0.13956059428519E+02
   O       0.18121956253534E+02     0.10092383550671E+02     0.57306691349273E+01
   O       0.18158206577507E+02     0.14230250254581E+02     0.17480734307593E+01
   O       0.22181144627777E+02     0.10098343465611E+02     0.17230343246090E+01
   O       0.22179241232257E+02     0.14223140672698E+02     0.57353884702474E+01
   O       0.18170374634628E+02     0.19263533648628E+01     0.30207738524909E+02
   O       0.18172070668152E+02     0.60003957054832E+01     0.26190105392806E+02
   O       0.22244150240154E+02     0.19280831374793E+01     0.26190100394553E+02
   O       0.22240622523328E+02     0.59967048180949E+01     0.30217248451263E+02
   O       0.18169425885402E+02     0.19254161146937E+01     0.22168362877018E+02
   O       0.18120758364442E+02     0.59108613743905E+01     0.18102052471862E+02
   O       0.22154966256945E+02     0.18770114564885E+01     0.18102025578943E+02
   O       0.22261363371817E+02     0.60175975092544E+01     0.22135906631480E+02
   O       0.18151023529833E+02     0.19069966932794E+01     0.13987717353774E+02
   O       0.18113478646489E+02     0.59018461086896E+01     0.98700057522546E+01
   O       0.22145975874937E+02     0.18697825796845E+01     0.98700435254473E+01
   O       0.22186147543757E+02     0.59422436476357E+01     0.13978344857204E+02
   O       0.18164863827299E+02     0.19208135065219E+01     0.58015748562484E+01
   O       0.18167561278278E+02     0.59945834680685E+01     0.17757387842144E+01
   O       0.22238504950475E+02     0.19235496311825E+01     0.17757403690616E+01
   O       0.22238131828440E+02     0.59942610135310E+01     0.58314500805704E+01
   O       0.10033193779871E+02     0.18330671543541E+02     0.30217274177626E+02
   O       0.10029742560629E+02     0.22399456349743E+02     0.26190237524091E+02
   O       0.14101923341932E+02     0.18327174531624E+02     0.26190234674342E+02
   O       0.14103591266946E+02     0.22401079455151E+02     0.30207764295425E+02
   O       0.10013197054346E+02     0.18310698678480E+02     0.22136324405312E+02
   O       0.10119964476829E+02     0.22451462455643E+02     0.18102234999523E+02
   O       0.14153927769232E+02     0.18417603189722E+02     0.18102167368570E+02
   O       0.14105085527879E+02     0.22402622212380E+02     0.22168451197291E+02
   O       0.10088028486411E+02     0.18385645687610E+02     0.13978425151297E+02
   O       0.10128742354713E+02     0.22458286485654E+02     0.98698332507080E+01
   O       0.14160775353177E+02     0.18426500701559E+02     0.98698823491512E+01
   O       0.14123809018995E+02     0.22421555003088E+02     0.13987720505277E+02
   O       0.10035926361265E+02     0.18333337559349E+02     0.58310549225873E+01
   O       0.10035333982266E+02     0.22403897814211E+02     0.17756500962174E+01
   O       0.14106390215090E+02     0.18332749486808E+02     0.17756656503203E+01
   O       0.14109517511949E+02     0.22407016819594E+02     0.58014906424988E+01
   O       0.10073325092433E+02     0.10101712380796E+02     0.30233574197207E+02
   O       0.10085122537655E+02     0.14222765857727E+02     0.26277951792742E+02
   O       0.14108844378475E+02     0.10100470024965E+02     0.26224189112697E+02
   O       0.14130013000487E+02     0.14226870826539E+02     0.30215469088545E+02
   O       0.10061034431153E+02     0.10118480041860E+02     0.22227169439681E+02
   O       0.10626190084236E+02     0.14176216985147E+02     0.18026367256750E+02
   O       0.14231936364922E+02     0.10015908227603E+02     0.18182559636116E+02
   O       0.14139990565339E+02     0.14227712725018E+02     0.22239198050185E+02
   O       0.10770882181185E+02     0.10208110188589E+02     0.13956249794694E+02
   O       0.10652292131434E+02     0.14192141381599E+02     0.98711189908522E+01
   O       0.14223834849381E+02     0.10011621890258E+02     0.97771738950103E+01
   O       0.14251804279687E+02     0.14345228693759E+02     0.13972615879033E+02
   O       0.10094145349160E+02     0.10104114794999E+02     0.57353833888990E+01
   O       0.10092293889759E+02     0.14228552578554E+02     0.17229011640415E+01
   O       0.14115650935591E+02     0.10096691672608E+02     0.17480840431640E+01
   O       0.14152089438761E+02     0.14234749612465E+02     0.57305124946571E+01
   O       0.10028362019796E+02     0.19272770556773E+01     0.30207929997835E+02
   O       0.10018279571109E+02     0.60111972094823E+01     0.26196210689345E+02
   O       0.14099652155147E+02     0.19296498285765E+01     0.26191147508221E+02
   O       0.14101809006309E+02     0.60009537898973E+01     0.30207945265556E+02
[...]
   O      -0.31592027443997E-05     0.46958955551365E-06    -0.19036342681378E-04
   O      -0.96195270908319E-05     0.90791462029684E-05    -0.12332456059181E-04
   O       0.35826034074669E-05    -0.42416139629341E-05     0.19327427979119E-04
   O      -0.12468197276462E-05     0.26092267094100E-05    -0.19202018647260E-04
   O       0.22380732197520E-05     0.28860046374763E-05    -0.49202447432930E-05
   O       0.47394182144805E-06    -0.12702914731315E-05    -0.12791801723006E-05
   O      -0.18265599921804E-04     0.17310807229668E-04    -0.92935356530416E-05
   O      -0.34858785352247E-05    -0.30048569219581E-05    -0.47410342452963E-05
   O       0.30387220002412E-06     0.92893802114066E-06     0.26533944866322E-04
   O       0.50448534491335E-05    -0.56647669205712E-05    -0.22957702326294E-04
   O       0.11405371898832E-04    -0.11814606022965E-04    -0.84529931340940E-05
   O      -0.18161641586172E-05    -0.86975732049204E-06     0.26689614154943E-04
   O       0.15430022293585E-05    -0.99343139661793E-05     0.26230573403415E-05
   O       0.60009569619992E-05    -0.67952569084906E-05    -0.23392053647753E-04
   O      -0.65850049550411E-06    -0.42207239747814E-07     0.18258631048227E-04
   O       0.92676200929942E-05    -0.21134596567102E-05     0.26665623358599E-05
   O      -0.99838411437626E-06    -0.45489555323592E-05     0.21179846619385E-04
   O      -0.10044246037205E-04    -0.16228690573002E-04     0.18661474550364E-05
   O       0.51794561527271E-05    -0.92608510824680E-05     0.90695608446808E-05
   O      -0.29825681240899E-05    -0.13528263279661E-05     0.69915838848470E-05
   O       0.18033164795745E-05     0.43664241010854E-05     0.43978787575413E-05
   O      -0.19394667594405E-04     0.26374178028771E-05     0.10647747068824E-04
   O       0.34832267394244E-05     0.36500896036674E-05    -0.23319753183384E-04
   O       0.22616677204993E-04    -0.47481754983956E-05     0.13055897011725E-06
   O      -0.76785015924166E-06    -0.17655939139882E-05    -0.33695413583115E-05
   O       0.10627046986794E-04    -0.32529184389759E-05    -0.30941761679096E-05
   O      -0.25862167183364E-05    -0.19392381218784E-05    -0.36646785814027E-05
   O       0.62237179548818E-05     0.83534223714703E-05     0.30680015939826E-04
   O       0.23553036159047E-05     0.99843792900241E-06     0.66514895353774E-05
   O       0.15062528221481E-04     0.10021891200439E-04    -0.10459458142185E-04
   O      -0.54996785358846E-05    -0.15405895275266E-05    -0.13622759058680E-05
   O      -0.19683010867372E-04    -0.49870016940309E-05    -0.21432175068090E-05
   O      -0.38163049405631E-06    -0.67646164928739E-06    -0.11508439441254E-05
   O       0.13949258400561E-04    -0.14673061136612E-04     0.91803302750375E-05
   O      -0.14316258671320E-04     0.13849195987666E-04     0.91423935360511E-05
   O      -0.12343150281361E-06    -0.32028606762428E-06    -0.11325396394011E-05
   O      -0.14151105319423E-04    -0.14331569439433E-04    -0.23771377646012E-04
   O       0.13763136782634E-04     0.13453591104698E-04    -0.23698269964951E-04
   O       0.73113667544015E-05     0.70644236128971E-05    -0.10498480589226E-04
   O      -0.13031291247043E-04     0.12404103652723E-04     0.53337284465706E-05
   O       0.12651388869665E-04    -0.13474992926445E-04     0.53537352813202E-05
   O      -0.76592197227436E-05    -0.77397289137715E-05    -0.10772415493909E-04
   O       0.24566375632236E-05     0.41089202091490E-06     0.70718737004032E-05
   O      -0.52142423521948E-05     0.84170767409360E-05     0.89577292618856E-05
   O       0.97816493002107E-05     0.15235894432645E-04     0.17979523774193E-05
   O       0.59857052803821E-06     0.37069676535443E-05     0.20992956066843E-04
   O      -0.23040862472217E-04     0.38395152758594E-05     0.88185857585266E-07
   O      -0.40088964774988E-05    -0.43790592369241E-05    -0.23029420638937E-04
   O       0.18945271598869E-04    -0.35017262477255E-05     0.10648041376273E-04
   O      -0.20909232775092E-05    -0.53664986482283E-05     0.44620130491037E-05
   O      -0.66555776606202E-05    -0.90996442883313E-05     0.30593362662789E-04
   O       0.21319497089669E-05     0.55593487429187E-06    -0.36319257192127E-05
   O      -0.11064081899049E-04     0.18891528763836E-05    -0.29509854790285E-05
   O       0.15657054114717E-06     0.10193159447683E-05    -0.34418849380920E-05
   O       0.19284128833560E-04     0.39967732077570E-05    -0.19837184608755E-05
   O       0.48594332511275E-05     0.53879711058155E-06    -0.11717705937263E-05
   O      -0.15439943165689E-04    -0.10785883914572E-04    -0.10233678313801E-04
   O      -0.27615996814566E-05    -0.21199744311973E-05     0.67634083329386E-05
 


   Partial temperatures (for each ionic specie) 
   Species  Temp (K)   Mean Square Displacement (a.u.)
        1   1.01E-03     2.1699E-03
        2   5.39E-03     5.5735E-03
        3   1.50E-02     2.8295E-04
 
  nfi     ekinc              temph  tempp     etot                 enthal               econs                econt              vnhh    xnhh0   vnhp    xnhp0
   4300    0.000000083786625    0.0    0.01   -2898.530490720367   -2898.544461204701   -2898.544450406434   -2898.544450322647   0.0000   0.0000   0.0000   0.0000
Elct. dipole 1  -30.138273  Ionic dipole 1   16.167788

   writing restart file (with schema): ./Ag16_334_59.save/
     restart      :     43.91s CPU     48.30s WALL (      12 calls)
   4301    0.000000083436561    0.0    0.01   -2898.530490757115   -2898.544460974691   -2898.544450183939   -2898.544450100503   0.0000   0.0000   0.0000   0.0000
Elct. dipole 1  -30.137493  Ionic dipole 1   16.167275
   4302    0.000000083080400    0.0    0.01   -2898.530490743511   -2898.544460692757   -2898.544449909637   -2898.544449826557   0.0000   0.0000   0.0000   0.0000
Elct. dipole 1  -30.136708  Ionic dipole 1   16.166758
   4303    0.000000082717774    0.0    0.01   -2898.530490719726   -2898.544460398839   -2898.544449623462   -2898.544449540744   0.0000   0.0000   0.0000   0.0000
Elct. dipole 1  -30.135918  Ionic dipole 1   16.166239
   4304    0.000000082349007    0.0    0.01   -2898.530490783635   -2898.544460191220   -2898.544449423692   -2898.544449341343   0.0000   0.0000   0.0000   0.0000
Elct. dipole 1  -30.135123  Ionic dipole 1   16.165716
   4305    0.000000081974520    0.0    0.01   -2898.530490764311   -2898.544459898670   -2898.544449139094   -2898.544449057119   0.0000   0.0000   0.0000   0.0000
Elct. dipole 1  -30.134324  Ionic dipole 1   16.165190
   4306    0.000000081595468    0.0    0.01   -2898.530490744028   -2898.544459603623   -2898.544448852097   -2898.544448770502   0.0000   0.0000   0.0000   0.0000
Elct. dipole 1  -30.133520  Ionic dipole 1   16.164661
   4307    0.000000081212443    0.0    0.01   -2898.530490754661   -2898.544459338030   -2898.544448594650   -2898.544448513438   0.0000   0.0000   0.0000   0.0000
Elct. dipole 1  -30.132712  Ionic dipole 1   16.164129
   4308    0.000000080824316    0.0    0.01   -2898.530490732619   -2898.544459038118   -2898.544448302972   -2898.544448222147   0.0000   0.0000   0.0000   0.0000
Elct. dipole 1  -30.131899  Ionic dipole 1   16.163593
   4309    0.000000080430657    0.0    0.01   -2898.530490684508   -2898.544458710803   -2898.544447983974   -2898.544447903543   0.0000   0.0000   0.0000   0.0000
Elct. dipole 1  -30.131082  Ionic dipole 1   16.163055
   4310    0.000000080032165    0.0    0.01   -2898.530490723830   -2898.544458469487   -2898.544447751054   -2898.544447671021   0.0000   0.0000   0.0000   0.0000
Elct. dipole 1  -30.130260  Ionic dipole 1   16.162514
   4311    0.000000079628916    0.0    0.01   -2898.530490700688   -2898.544458164001   -2898.544447454037   -2898.544447374408   0.0000   0.0000   0.0000   0.0000
Elct. dipole 1  -30.129434  Ionic dipole 1   16.161970
   4312    0.000000079221368    0.0    0.01   -2898.530490707729   -2898.544457887261   -2898.544447185832   -2898.544447106611   0.0000   0.0000   0.0000   0.0000
Elct. dipole 1  -30.128603  Ionic dipole 1   16.161423
   4313    0.000000078810449    0.0    0.01   -2898.530490716405   -2898.544457610706   -2898.544446917876   -2898.544446839065   0.0000   0.0000   0.0000   0.0000
Elct. dipole 1  -30.127768  Ionic dipole 1   16.160874
   4314    0.000000078396318    0.0    0.01   -2898.530490748929   -2898.544457356660   -2898.544446672486   -2898.544446594090   0.0000   0.0000   0.0000   0.0000
Elct. dipole 1  -30.126929  Ionic dipole 1   16.160321
   4315    0.000000077978928    0.0    0.01   -2898.530490781488   -2898.544457101304   -2898.544446425839   -2898.544446347860   0.0000   0.0000   0.0000   0.0000
Elct. dipole 1  -30.126086  Ionic dipole 1   16.159766
   4316    0.000000077558366    0.0    0.01   -2898.530490786438   -2898.544456816748   -2898.544446150036   -2898.544446072477   0.0000   0.0000   0.0000   0.0000
Elct. dipole 1  -30.125239  Ionic dipole 1   16.159208
   4317    0.000000077134934    0.0    0.01   -2898.530490847569   -2898.544456586998   -2898.544445929077   -2898.544445851942   0.0000   0.0000   0.0000   0.0000
Elct. dipole 1  -30.124387  Ionic dipole 1   16.158648
   4318    0.000000076708625    0.0    0.01   -2898.530490911527   -2898.544456358701   -2898.544445709606   -2898.544445632897   0.0000   0.0000   0.0000   0.0000
Elct. dipole 1  -30.123532  Ionic dipole 1   16.158085
   4319    0.000000076279030    0.0    0.01   -2898.530490941288   -2898.544456094665   -2898.544445454421   -2898.544445378142   0.0000   0.0000   0.0000   0.0000
Elct. dipole 1  -30.122672  Ionic dipole 1   16.157519
   4320    0.000000075846827    0.0    0.01   -2898.530490920084   -2898.544455778410   -2898.544445147038   -2898.544445071191   0.0000   0.0000   0.0000   0.0000
Elct. dipole 1  -30.121809  Ionic dipole 1   16.156951
   4321    0.000000075413214    0.0    0.01   -2898.530491008079   -2898.544455570045   -2898.544444947558   -2898.544444872145   0.0000   0.0000   0.0000   0.0000
Elct. dipole 1  -30.120942  Ionic dipole 1   16.156380
   4322    0.000000074978209    0.0    0.01   -2898.530491014209   -2898.544455278493   -2898.544444664900   -2898.544444589922   0.0000   0.0000   0.0000   0.0000
Elct. dipole 1  -30.120071  Ionic dipole 1   16.155807
   4323    0.000000074541819    0.0    0.01   -2898.530491044132   -2898.544455009417   -2898.544444404720   -2898.544444330178   0.0000   0.0000   0.0000   0.0000
Elct. dipole 1  -30.119196  Ionic dipole 1   16.155231
   4324    0.000000074104220    0.0    0.01   -2898.530491050046   -2898.544454714809   -2898.544444119001   -2898.544444044896   0.0000   0.0000   0.0000   0.0000
Elct. dipole 1  -30.118318  Ionic dipole 1   16.154653
   4325    0.000000073665430    0.0    0.01   -2898.530491029644   -2898.544454392552   -2898.544443805620   -2898.544443731955   0.0000   0.0000   0.0000   0.0000
Elct. dipole 1  -30.117436  Ionic dipole 1   16.154073
   4326    0.000000073225466    0.0    0.01   -2898.530490981689   -2898.544454041552   -2898.544443463476   -2898.544443390251   0.0000   0.0000   0.0000   0.0000
Elct. dipole 1  -30.116550  Ionic dipole 1   16.153490
   4327    0.000000072784273    0.0    0.01   -2898.530490985280   -2898.544453740695   -2898.544443171449   -2898.544443098664   0.0000   0.0000   0.0000   0.0000
Elct. dipole 1  -30.115661  Ionic dipole 1   16.152906
   4328    0.000000072343001    0.0    0.01   -2898.530490991149   -2898.544453440943   -2898.544442880493   -2898.544442808150   0.0000   0.0000   0.0000   0.0000
Elct. dipole 1  -30.114768  Ionic dipole 1   16.152319
   4329    0.000000071902676    0.0    0.01   -2898.530490998023   -2898.544453140919   -2898.544442589223   -2898.544442517320   0.0000   0.0000   0.0000   0.0000
Elct. dipole 1  -30.113872  Ionic dipole 1   16.151730
   4330    0.000000071461894    0.0    0.01   -2898.530491000887   -2898.544452835452   -2898.544442292463   -2898.544442221001   0.0000   0.0000   0.0000   0.0000
Elct. dipole 1  -30.112973  Ionic dipole 1   16.151138
   4331    0.000000071021040    0.0    0.01   -2898.530491005524   -2898.544452530553   -2898.544441996215   -2898.544441925194   0.0000   0.0000   0.0000   0.0000
Elct. dipole 1  -30.112070  Ionic dipole 1   16.150545
   4332    0.000000070580931    0.0    0.01   -2898.530490985734   -2898.544452199932   -2898.544441674183   -2898.544441603602   0.0000   0.0000   0.0000   0.0000
Elct. dipole 1  -30.111164  Ionic dipole 1   16.149950
   4333    0.000000070141351    0.0    0.01   -2898.530490987480   -2898.544451889665   -2898.544441372435   -2898.544441302294   0.0000   0.0000   0.0000   0.0000
Elct. dipole 1  -30.110255  Ionic dipole 1   16.149352
   4334    0.000000069703593    0.0    0.01   -2898.530490967193   -2898.544451556399   -2898.544441047611   -2898.544440977907   0.0000   0.0000   0.0000   0.0000
Elct. dipole 1  -30.109342  Ionic dipole 1   16.148753
   4335    0.000000069267466    0.0    0.01   -2898.530490945115   -2898.544451219894   -2898.544440719464   -2898.544440650197   0.0000   0.0000   0.0000   0.0000
Elct. dipole 1  -30.108427  Ionic dipole 1   16.148152
   4336    0.000000068832799    0.0    0.01   -2898.530491002092   -2898.544450961236   -2898.544440469071   -2898.544440400238   0.0000   0.0000   0.0000   0.0000
Elct. dipole 1  -30.107508  Ionic dipole 1   16.147549
   4337    0.000000068400266    0.0    0.01   -2898.530491038443   -2898.544450680793   -2898.544440196794   -2898.544440128394   0.0000   0.0000   0.0000   0.0000
Elct. dipole 1  -30.106586  Ionic dipole 1   16.146944
   4338    0.000000067968905    0.0    0.01   -2898.530491014551   -2898.544450338705   -2898.544439862764   -2898.544439794795   0.0000   0.0000   0.0000   0.0000
Elct. dipole 1  -30.105661  Ionic dipole 1   16.146337
   4339    0.000000067538965    0.0    0.01   -2898.530490992533   -2898.544449997503   -2898.544439529505   -2898.544439461966   0.0000   0.0000   0.0000   0.0000
Elct. dipole 1  -30.104734  Ionic dipole 1   16.145729
   4340    0.000000067112043    0.0    0.01   -2898.530490971511   -2898.544449656230   -2898.544439196053   -2898.544439128941   0.0000   0.0000   0.0000   0.0000
Elct. dipole 1  -30.103804  Ionic dipole 1   16.145119
   4341    0.000000066688264    0.0    0.01   -2898.530490921027   -2898.544449284373   -2898.544438831888   -2898.544438765200   0.0000   0.0000   0.0000   0.0000
Elct. dipole 1  -30.102871  Ionic dipole 1   16.144507
   4342    0.000000066267765    0.0    0.01   -2898.530490926843   -2898.544448967710   -2898.544438522781   -2898.544438456513   0.0000   0.0000   0.0000   0.0000
Elct. dipole 1  -30.101935  Ionic dipole 1   16.143894
   4343    0.000000065850675    0.0    0.01   -2898.530490907002   -2898.544448623998   -2898.544438186480   -2898.544438120629   0.0000   0.0000   0.0000   0.0000
Elct. dipole 1  -30.100996  Ionic dipole 1   16.143279
   4344    0.000000065436675    0.0    0.01   -2898.530490882657   -2898.544448274612   -2898.544437844353   -2898.544437778916   0.0000   0.0000   0.0000   0.0000
Elct. dipole 1  -30.100055  Ionic dipole 1   16.142663
   4345    0.000000065026229    0.0    0.01   -2898.530490888648   -2898.544447954632   -2898.544437531473   -2898.544437466447   0.0000   0.0000   0.0000   0.0000
Elct. dipole 1  -30.099111  Ionic dipole 1   16.142045
   4346    0.000000064618855    0.0    0.01   -2898.530490894605   -2898.544447633392   -2898.544437217166   -2898.544437152547   0.0000   0.0000   0.0000   0.0000
Elct. dipole 1  -30.098164  Ionic dipole 1   16.141425
   4347    0.000000064215005    0.0    0.01   -2898.530490927510   -2898.544447338182   -2898.544436928713   -2898.544436864498   0.0000   0.0000   0.0000   0.0000
Elct. dipole 1  -30.097215  Ionic dipole 1   16.140805
   4348    0.000000063816226    0.0    0.01   -2898.530490879018   -2898.544446960494   -2898.544436557602   -2898.544436493786   0.0000   0.0000   0.0000   0.0000
Elct. dipole 1  -30.096264  Ionic dipole 1   16.140183
   4349    0.000000063422570    0.0    0.01   -2898.530490855690   -2898.544446606783   -2898.544436210281   -2898.544436146859   0.0000   0.0000   0.0000   0.0000
Elct. dipole 1  -30.095310  Ionic dipole 1   16.139559
   4350    0.000000063033821    0.0    0.01   -2898.530490891590   -2898.544446311308   -2898.544435921000   -2898.544435857966   0.0000   0.0000   0.0000   0.0000
Elct. dipole 1  -30.094354  Ionic dipole 1   16.138935
   4351    0.000000062649295    0.0    0.01   -2898.530490872688   -2898.544445959850   -2898.544435575533   -2898.544435512883   0.0000   0.0000   0.0000   0.0000
Elct. dipole 1  -30.093396  Ionic dipole 1   16.138309
   4352    0.000000062269212    0.0    0.01   -2898.530490900755   -2898.544445654287   -2898.544435275750   -2898.544435213481   0.0000   0.0000   0.0000   0.0000
Elct. dipole 1  -30.092435  Ionic dipole 1   16.137682
   4353    0.000000061894403    0.0    0.01   -2898.530490855600   -2898.544445274711   -2898.544434901737   -2898.544434839842   0.0000   0.0000   0.0000   0.0000
Elct. dipole 1  -30.091473  Ionic dipole 1   16.137054
   4354    0.000000061524995    0.0    0.01   -2898.530490808173   -2898.544444891846   -2898.544434524211   -2898.544434462686   0.0000   0.0000   0.0000   0.0000
Elct. dipole 1  -30.090508  Ionic dipole 1   16.136424
   4355    0.000000061161732    0.0    0.01   -2898.530490786067   -2898.544444533261   -2898.544434170734   -2898.544434109573   0.0000   0.0000   0.0000   0.0000
Elct. dipole 1  -30.089541  Ionic dipole 1   16.135794
   4356    0.000000060804749    0.0    0.01   -2898.530490794020   -2898.544444203580   -2898.544433845926   -2898.544433785121   0.0000   0.0000   0.0000   0.0000
Elct. dipole 1  -30.088572  Ionic dipole 1   16.135163
   4357    0.000000060453365    0.0    0.01   -2898.530490829263   -2898.544443900103   -2898.544433547075   -2898.544433486622   0.0000   0.0000   0.0000   0.0000
Elct. dipole 1  -30.087601  Ionic dipole 1   16.134531
   4358    0.000000060107861    0.0    0.01   -2898.530490864495   -2898.544443595835   -2898.544433247182   -2898.544433187074   0.0000   0.0000   0.0000   0.0000
Elct. dipole 1  -30.086629  Ionic dipole 1   16.133897
   4359    0.000000059768522    0.0    0.01   -2898.530490870822   -2898.544443261726   -2898.544432917191   -2898.544432857423   0.0000   0.0000   0.0000   0.0000
Elct. dipole 1  -30.085654  Ionic dipole 1   16.133263
   4360    0.000000059435285    0.0    0.01   -2898.530490821142   -2898.544442870661   -2898.544432529980   -2898.544432470544   0.0000   0.0000   0.0000   0.0000
Elct. dipole 1  -30.084678  Ionic dipole 1   16.132628
   4361    0.000000059108870    0.0    0.01   -2898.530490831303   -2898.544442538626   -2898.544432201528   -2898.544432142419   0.0000   0.0000   0.0000   0.0000
Elct. dipole 1  -30.083700  Ionic dipole 1   16.131993
   4362    0.000000058789347    0.0    0.01   -2898.530490840260   -2898.544442204177   -2898.544431870387   -2898.544431811597   0.0000   0.0000   0.0000   0.0000
Elct. dipole 1  -30.082720  Ionic dipole 1   16.131356
   4363    0.000000058476708    0.0    0.01   -2898.530490873902   -2898.544441893519   -2898.544431562753   -2898.544431504276   0.0000   0.0000   0.0000   0.0000
Elct. dipole 1  -30.081739  Ionic dipole 1   16.130719
   4364    0.000000058171609    0.0    0.01   -2898.530490884938   -2898.544441559445   -2898.544431231418   -2898.544431173246   0.0000   0.0000   0.0000   0.0000
Elct. dipole 1  -30.080756  Ionic dipole 1   16.130081
   4365    0.000000057873710    0.0    0.01   -2898.530490892840   -2898.544441221174   -2898.544430895591   -2898.544430837717   0.0000   0.0000   0.0000   0.0000
Elct. dipole 1  -30.079771  Ionic dipole 1   16.129443
   4366    0.000000057582982    0.0    0.01   -2898.530490875459   -2898.544440856917   -2898.544430533480   -2898.544430475897   0.0000   0.0000   0.0000   0.0000
Elct. dipole 1  -30.078785  Ionic dipole 1   16.128804
