
     Program CP v.6.6 starts on 22Feb2021 at  1: 1:44 

     This program is part of the open-source Quantum ESPRESSO suite
     for quantum simulation of materials; please cite
         "P. Giannozzi et al., J. Phys.:Condens. Matter 21 395502 (2009);
         "P. Giannozzi et al., J. Phys.:Condens. Matter 29 465901 (2017);
          URL http://www.quantum-espresso.org", 
     in publications or presentations arising from this work. More details at
     http://www.quantum-espresso.org/quote

     Parallel version (MPI & OpenMP), running on     320 processor cores
     Number of MPI processes:               160
     Threads/MPI process:                     2

     MPI processes distributed on     4 nodes
     R & G space division:  proc/nbgrp/npool/nimage =     160
     Fft bands division:     nmany     =       1
     Waiting for input...
     Reading input from standard input

   Job Title: MD Simulation


   Atomic Pseudopotentials Parameters
   ----------------------------------

   Reading pseudopotential for specie #  1 from file :
   ./O.pz-n-rrkjus_psl.0.1.UPF
     Message from routine emend_upf/check:
     BEWARE !!! Possible out of bounds while fixing pseudo
     Message from routine emend_upf/check:
     BEWARE !!! Possible out of bounds while fixing pseudo
     Message from routine read_upf:
     Pseudo file O.pz-n-rrkjus_psl.0.1.UPF has been fixed on the fly.
     To avoid this message in the future, permanently fix 
     your pseudo files following these instructions: 
     https://gitlab.com/QEF/q-e/blob/master/upftools/how_to_fix_upf.md
   file type is UPF v.2

   Reading pseudopotential for specie #  2 from file :
   ./Ag.pz-d-rrkjus.UPF
   file type is UPF v.1

   Reading pseudopotential for specie #  3 from file :
   ./Mg.pz-bhs.UPF
   file type is UPF v.1
     file Ag.pz-d-rrkjus.UPF: wavefunction(s)  4D 5S renormalized


   Main Simulation Parameters (from input)
   ---------------------------------------
   Restart Mode       =       1   restart        
   Number of MD Steps =    7000
   Print out every           10 MD Steps
   Reads from unit    =      59
   Writes to unit     =      59
   MD Simulation time step            =       8.00
   Electronic fictitious mass (emass) =     300.00
   emass cut-off                      =       2.50

   Simulation Cell Parameters (from input)
   external pressure       =            0.00 [KBar]
   wmass (calculated)      =       949740.81 [AU]
   initial cell from CELL_PARAMETERS card
      12.63360000    0.00000000    0.00000000
       0.00000000   12.63360000    0.00000000
       0.00000000    0.00000000   16.84480000
   ibrav =    0
   alat  =    23.87404397
   a1    =    23.87404397    0.00000000    0.00000000
   a2    =     0.00000000   23.87404397    0.00000000
   a3    =     0.00000000    0.00000000   31.83205862
 
   b1    =     0.04188649    0.00000000    0.00000000
   b2    =     0.00000000    0.04188649    0.00000000
   b3    =     0.00000000    0.00000000    0.03141487
   omega =   18143.31767057

   Energy Cut-offs
   ---------------
   Ecutwfc =   50.0 Ry,      Ecutrho =  400.0 Ry,      Ecuts =  200.0 Ry
   Gcutwfc =   26.9     ,    Gcutrho =   76.0          Gcuts =   53.7
   NOTA BENE: refg, mmx =   0.050000  9600
   Eigenvalues calculated without the kinetic term contribution
   Orthog. with lagrange multipliers : eps =   0.10E-08,  max = 100
   verlet algorithm for electron dynamics
   with friction frice =  0.0500 , grease =  1.0000
   Electron dynamics : the temperature is not controlled

   Electronic states
   -----------------
   Number of Electrons=  1236, of States =   618
   Occupation numbers :
   2.00 2.00 2.00 2.00 2.00 2.00 2.00 2.00 2.00 2.00
   2.00 2.00 2.00 2.00 2.00 2.00 2.00 2.00 2.00 2.00
   2.00 2.00 2.00 2.00 2.00 2.00 2.00 2.00 2.00 2.00
   2.00 2.00 2.00 2.00 2.00 2.00 2.00 2.00 2.00 2.00
   2.00 2.00 2.00 2.00 2.00 2.00 2.00 2.00 2.00 2.00
   2.00 2.00 2.00 2.00 2.00 2.00 2.00 2.00 2.00 2.00
   2.00 2.00 2.00 2.00 2.00 2.00 2.00 2.00 2.00 2.00
   2.00 2.00 2.00 2.00 2.00 2.00 2.00 2.00 2.00 2.00
   2.00 2.00 2.00 2.00 2.00 2.00 2.00 2.00 2.00 2.00
   2.00 2.00 2.00 2.00 2.00 2.00 2.00 2.00 2.00 2.00
   2.00 2.00 2.00 2.00 2.00 2.00 2.00 2.00 2.00 2.00
   2.00 2.00 2.00 2.00 2.00 2.00 2.00 2.00 2.00 2.00
   2.00 2.00 2.00 2.00 2.00 2.00 2.00 2.00 2.00 2.00
   2.00 2.00 2.00 2.00 2.00 2.00 2.00 2.00 2.00 2.00
   2.00 2.00 2.00 2.00 2.00 2.00 2.00 2.00 2.00 2.00
   2.00 2.00 2.00 2.00 2.00 2.00 2.00 2.00 2.00 2.00
   2.00 2.00 2.00 2.00 2.00 2.00 2.00 2.00 2.00 2.00
   2.00 2.00 2.00 2.00 2.00 2.00 2.00 2.00 2.00 2.00
   2.00 2.00 2.00 2.00 2.00 2.00 2.00 2.00 2.00 2.00
   2.00 2.00 2.00 2.00 2.00 2.00 2.00 2.00 2.00 2.00
   2.00 2.00 2.00 2.00 2.00 2.00 2.00 2.00 2.00 2.00
   2.00 2.00 2.00 2.00 2.00 2.00 2.00 2.00 2.00 2.00
   2.00 2.00 2.00 2.00 2.00 2.00 2.00 2.00 2.00 2.00
   2.00 2.00 2.00 2.00 2.00 2.00 2.00 2.00 2.00 2.00
   2.00 2.00 2.00 2.00 2.00 2.00 2.00 2.00 2.00 2.00
   2.00 2.00 2.00 2.00 2.00 2.00 2.00 2.00 2.00 2.00
   2.00 2.00 2.00 2.00 2.00 2.00 2.00 2.00 2.00 2.00
   2.00 2.00 2.00 2.00 2.00 2.00 2.00 2.00 2.00 2.00
   2.00 2.00 2.00 2.00 2.00 2.00 2.00 2.00 2.00 2.00
   2.00 2.00 2.00 2.00 2.00 2.00 2.00 2.00 2.00 2.00
   2.00 2.00 2.00 2.00 2.00 2.00 2.00 2.00 2.00 2.00
   2.00 2.00 2.00 2.00 2.00 2.00 2.00 2.00 2.00 2.00
   2.00 2.00 2.00 2.00 2.00 2.00 2.00 2.00 2.00 2.00
   2.00 2.00 2.00 2.00 2.00 2.00 2.00 2.00 2.00 2.00
   2.00 2.00 2.00 2.00 2.00 2.00 2.00 2.00 2.00 2.00
   2.00 2.00 2.00 2.00 2.00 2.00 2.00 2.00 2.00 2.00
   2.00 2.00 2.00 2.00 2.00 2.00 2.00 2.00 2.00 2.00
   2.00 2.00 2.00 2.00 2.00 2.00 2.00 2.00 2.00 2.00
   2.00 2.00 2.00 2.00 2.00 2.00 2.00 2.00 2.00 2.00
   2.00 2.00 2.00 2.00 2.00 2.00 2.00 2.00 2.00 2.00
   2.00 2.00 2.00 2.00 2.00 2.00 2.00 2.00 2.00 2.00
   2.00 2.00 2.00 2.00 2.00 2.00 2.00 2.00 2.00 2.00
   2.00 2.00 2.00 2.00 2.00 2.00 2.00 2.00 2.00 2.00
   2.00 2.00 2.00 2.00 2.00 2.00 2.00 2.00 2.00 2.00
   2.00 2.00 2.00 2.00 2.00 2.00 2.00 2.00 2.00 2.00
   2.00 2.00 2.00 2.00 2.00 2.00 2.00 2.00 2.00 2.00
   2.00 2.00 2.00 2.00 2.00 2.00 2.00 2.00 2.00 2.00
   2.00 2.00 2.00 2.00 2.00 2.00 2.00 2.00 2.00 2.00
   2.00 2.00 2.00 2.00 2.00 2.00 2.00 2.00 2.00 2.00
   2.00 2.00 2.00 2.00 2.00 2.00 2.00 2.00 2.00 2.00
   2.00 2.00 2.00 2.00 2.00 2.00 2.00 2.00 2.00 2.00
   2.00 2.00 2.00 2.00 2.00 2.00 2.00 2.00 2.00 2.00
   2.00 2.00 2.00 2.00 2.00 2.00 2.00 2.00 2.00 2.00
   2.00 2.00 2.00 2.00 2.00 2.00 2.00 2.00 2.00 2.00
   2.00 2.00 2.00 2.00 2.00 2.00 2.00 2.00 2.00 2.00
   2.00 2.00 2.00 2.00 2.00 2.00 2.00 2.00 2.00 2.00
   2.00 2.00 2.00 2.00 2.00 2.00 2.00 2.00 2.00 2.00
   2.00 2.00 2.00 2.00 2.00 2.00 2.00 2.00 2.00 2.00
   2.00 2.00 2.00 2.00 2.00 2.00 2.00 2.00 2.00 2.00
   2.00 2.00 2.00 2.00 2.00 2.00 2.00 2.00 2.00 2.00
   2.00 2.00 2.00 2.00 2.00 2.00 2.00 2.00 2.00 2.00
   2.00 2.00 2.00 2.00 2.00 2.00 2.00 2.00


   Exchange and correlations functionals
   -------------------------------------
     Exchange-correlation=  SLA  PZ   NOGX NOGC
                           (   1   1   0   0   0   0   0)


   Ions Simulation Parameters
   --------------------------
   Ions are allowed to move
   Ions dynamics with newton equations
   the temperature is computed for   864 degrees of freedom
   ion dynamics with fricp =  0.0000 and greasp =  1.0000
   Ionic position (from input)
   sorted by specie, and converted to real a.u. coordinates
   Species   1 atoms =  138 mass =     29166.22 (a.u.),        16.00 (amu) rcmax =   0.50 (a.u.)
       17.686732    17.800724    29.675879
       17.686732    21.779731    25.696872
       21.665740    17.800724    25.696872
       21.665739    21.779731    29.675879
       17.686732    17.800724    21.717864
       17.686732    21.779731    17.738857
       21.665740    17.800724    17.738857
       21.665740    21.779731    21.717864
       17.686732    17.800724    13.759849
       17.686732    21.779732     9.780841
       21.665740    17.800724     9.780841
       21.665740    21.779731    13.759849
       17.686733    17.800725     5.801834
       17.686733    21.779732     1.822826
       21.665741    17.800725     1.822826
       21.665740    21.779732     5.801834
       17.686732     9.842708    29.675879
       17.686732    13.821716    25.696872
       21.665740     9.842709    25.696872
       21.665740    13.821716    29.675879
       17.686732     9.842709    21.717864
       17.686732    13.821716    17.738857
       21.665740     9.842709    17.738857
       21.665740    13.821716    21.717864
       17.686733     9.842709    13.759849
       17.686733    13.821717     9.780841
       21.665741     9.842709     9.780841
       21.665740    13.821716    13.759849
       17.686733     9.842709     5.801834
       17.686733    13.821717     1.822826
       21.665741     9.842710     1.822826
       21.665741    13.821717     5.801834
       17.686732     1.884693    29.675879
       17.686732     5.863701    25.696872
       21.665740     1.884693    25.696872
       21.665740     5.863701    29.675879
       17.686733     1.884694    21.717864
       17.686733     5.863701    17.738857
       21.665741     1.884694    17.738857
       21.665740     5.863701    21.717864
       17.686733     1.884694    13.759849
       17.686733     5.863701     9.780841
       21.665741     1.884694     9.780841
       21.665741     5.863701    13.759849
       17.686733     1.884694     5.801834
       17.686733     5.863702     1.822826
       21.665741     1.884695     1.822826
       21.665741     5.863702     5.801834
        9.728716    17.800724    29.675879
        9.728716    21.779731    25.696872
       13.707725    17.800724    25.696872
       13.707724    21.779731    29.675879
        9.728717    17.800724    21.717864
        9.728717    21.779731    17.738857
       13.707725    17.800724    17.738857
       13.707725    21.779731    21.717864
        9.728717    17.800724    13.759849
        9.728717    21.779732     9.780841
       13.707725    17.800724     9.780841
       13.707725    21.779731    13.759849
        9.728718    17.800725     5.801834
        9.728718    21.779732     1.822826
       13.707726    17.800725     1.822826
       13.707725    21.779732     5.801834
        9.728717     9.842708    29.675879
        9.728717    13.821716    25.696872
       13.707725     9.842709    25.696872
       13.707725    13.821716    29.675879
        9.728717     9.842709    21.717864
        9.728717    13.821716    17.738857
       13.707725     9.842709    17.738857
       13.707725    13.821716    21.717864
        9.728718     9.842709    13.759849
        9.728718    13.821717     9.780841
       13.707726     9.842709     9.780841
       13.707725    13.821716    13.759849
        9.728718     9.842709     5.801834
        9.728718    13.821717     1.822826
       13.707726     9.842710     1.822826
       13.707726    13.821717     5.801834
        9.728717     1.884693    29.675879
        9.728717     5.863701    25.696872
       13.707725     1.884693    25.696872
       13.707725     5.863701    29.675879
        9.728718     1.884694    21.717864
        9.728718     5.863701    17.738857
       13.707726     1.884694    17.738857
       13.707725     5.863701    21.717864
        9.728718     1.884694    13.759849
        9.728718     5.863701     9.780841
       13.707726     1.884694     9.780841
       13.707726     5.863701    13.759849
        9.728718     1.884694     5.801834
        9.728718     5.863702     1.822826
       13.707726     1.884695     1.822826
       13.707726     5.863702     5.801834
        1.770701    17.800724    29.675879
        1.770701    21.779731    25.696872
        5.749709    17.800724    25.696872
        5.749709    21.779731    29.675879
        1.770702    17.800724    21.717864
        1.770702    21.779731    17.738857
        5.749710    17.800724    17.738857
        5.749709    21.779731    21.717864
        1.770702    17.800724    13.759849
        1.770702    21.779732     9.780841
        5.749710    17.800724     9.780841
        5.749710    21.779731    13.759849
        1.770702    17.800725     5.801834
        1.770702    21.779732     1.822826
        5.749711    17.800725     1.822826
        5.749710    21.779732     5.801834
        1.770702     9.842708    29.675879
        1.770702    13.821716    25.696872
        5.749710     9.842709    25.696872
        5.749709    13.821716    29.675879
        1.770702     9.842709    21.717864
        5.749710    13.821716    21.717864
        1.770703     9.842709     5.801834
        1.770703    13.821717     1.822826
        5.749711     9.842710     1.822826
        5.749711    13.821717     5.801834
        1.770702     1.884693    29.675879
        1.770702     5.863701    25.696872
        5.749710     1.884693    25.696872
        5.749710     5.863701    29.675879
        1.770702     1.884694    21.717864
        1.770702     5.863701    17.738857
        5.749711     1.884694    17.738857
        5.749710     5.863701    21.717864
        1.770703     1.884694    13.759849
        1.770703     5.863701     9.780841
        5.749711     1.884694     9.780841
        5.749711     5.863701    13.759849
        1.770703     1.884694     5.801834
        1.770703     5.863702     1.822826
        5.749711     1.884695     1.822826
        5.749711     5.863702     5.801834
   Species   2 atoms =   12 mass =    196689.67 (a.u.),       107.90 (amu) rcmax =   0.50 (a.u.)
        1.770702    13.821716    17.738857
        5.749710     9.842709    17.738857
        5.749710    13.821716    17.738857
        1.770702     9.842709    17.738857
        1.770702     9.842709    13.759849
        1.770702    13.821717     9.780841
        5.749711     9.842709     9.780841
        5.749710    13.821717     9.780841
        5.749710     9.842709    13.759849
        1.770702    13.821717    13.759849
        5.749710    13.821716    13.759849
        1.770703     9.842709     9.780841
   Species   3 atoms =  138 mass =     44296.19 (a.u.),        24.30 (amu) rcmax =   0.50 (a.u.)
       21.665739    21.779731    25.696872
       21.665739    17.800724    29.675879
       17.686731    21.779731    29.675879
       17.686732    17.800724    25.696872
       21.665740    21.779732    17.738857
       21.665740    17.800724    21.717864
       17.686732    21.779731    21.717864
       17.686732    17.800724    17.738857
       21.665740    21.779732     9.780841
       21.665740    17.800724    13.759849
       17.686732    21.779732    13.759849
       17.686732    17.800724     9.780841
       21.665740    21.779732     1.822826
       21.665740    17.800725     5.801834
       17.686732    21.779732     5.801834
       17.686733    17.800725     1.822826
       21.665740    13.821716    25.696872
       21.665740     9.842708    29.675879
       17.686732    13.821716    29.675879
       17.686732     9.842709    25.696872
       21.665740    13.821716    17.738857
       21.665740     9.842709    21.717864
       17.686732    13.821716    21.717864
       17.686732     9.842709    17.738857
       21.665740    13.821717     9.780841
       21.665740     9.842709    13.759849
       17.686732    13.821717    13.759849
       17.686733     9.842709     9.780841
       21.665741    13.821717     1.822826
       21.665741     9.842709     5.801834
       17.686733    13.821717     5.801834
       17.686733     9.842710     1.822826
       21.665740     5.863701    25.696872
       21.665740     1.884693    29.675879
       17.686732     5.863701    29.675879
       17.686732     1.884693    25.696872
       21.665740     5.863701    17.738857
       21.665740     1.884694    21.717864
       17.686732     5.863701    21.717864
       17.686733     1.884694    17.738857
       21.665741     5.863702     9.780841
       21.665741     1.884694    13.759849
       17.686733     5.863702    13.759849
       17.686733     1.884694     9.780841
       21.665741     5.863702     1.822826
       21.665741     1.884694     5.801834
       17.686733     5.863702     5.801834
       17.686734     1.884695     1.822826
       13.707724    21.779731    25.696872
       13.707724    17.800724    29.675879
        9.728716    21.779731    29.675879
        9.728717    17.800724    25.696872
       13.707724    21.779732    17.738857
       13.707724    17.800724    21.717864
        9.728717    21.779731    21.717864
        9.728717    17.800724    17.738857
       13.707725    21.779732     9.780841
       13.707725    17.800724    13.759849
        9.728717    21.779732    13.759849
        9.728717    17.800724     9.780841
       13.707725    21.779732     1.822826
       13.707725    17.800725     5.801834
        9.728717    21.779732     5.801834
        9.728718    17.800725     1.822826
       13.707724    13.821716    25.696872
       13.707724     9.842708    29.675879
        9.728717    13.821716    29.675879
        9.728717     9.842709    25.696872
       13.707725    13.821716    17.738857
       13.707725     9.842709    21.717864
        9.728717    13.821716    21.717864
        9.728717     9.842709    17.738857
       13.707725    13.821717     9.780841
       13.707725     9.842709    13.759849
        9.728717    13.821717    13.759849
        9.728718     9.842709     9.780841
       13.707725    13.821717     1.822826
       13.707725     9.842709     5.801834
        9.728718    13.821717     5.801834
        9.728718     9.842710     1.822826
       13.707725     5.863701    25.696872
       13.707725     1.884693    29.675879
        9.728717     5.863701    29.675879
        9.728717     1.884693    25.696872
       13.707725     5.863701    17.738857
       13.707725     1.884694    21.717864
        9.728717     5.863701    21.717864
        9.728718     1.884694    17.738857
       13.707725     5.863702     9.780841
       13.707725     1.884694    13.759849
        9.728718     5.863702    13.759849
        9.728718     1.884694     9.780841
       13.707726     5.863702     1.822826
       13.707726     1.884694     5.801834
        9.728718     5.863702     5.801834
        9.728718     1.884695     1.822826
        5.749709    21.779731    25.696872
        5.749709    17.800724    29.675879
        1.770701    21.779731    29.675879
        1.770702    17.800724    25.696872
        5.749709    21.779732    17.738857
        5.749709    17.800724    21.717864
        1.770702    21.779731    21.717864
        1.770702    17.800724    17.738857
        5.749710    21.779732     9.780841
        5.749710    17.800724    13.759849
        1.770702    21.779732    13.759849
        1.770702    17.800724     9.780841
        5.749710    21.779732     1.822826
        5.749710    17.800725     5.801834
        1.770702    21.779732     5.801834
        1.770703    17.800725     1.822826
        5.749709    13.821716    25.696872
        5.749709     9.842708    29.675879
        1.770702    13.821716    29.675879
        1.770702     9.842709    25.696872
        5.749710     9.842709    21.717864
        1.770702    13.821716    21.717864
        5.749710    13.821717     1.822826
        5.749710     9.842709     5.801834
        1.770703    13.821717     5.801834
        1.770703     9.842710     1.822826
        5.749710     5.863701    25.696872
        5.749710     1.884693    29.675879
        1.770702     5.863701    29.675879
        1.770702     1.884693    25.696872
        5.749710     5.863701    17.738857
        5.749710     1.884694    21.717864
        1.770702     5.863701    21.717864
        1.770703     1.884694    17.738857
        5.749710     5.863702     9.780841
        5.749710     1.884694    13.759849
        1.770703     5.863702    13.759849
        1.770703     1.884694     9.780841
        5.749711     5.863702     1.822826
        5.749711     1.884694     5.801834
        1.770703     5.863702     5.801834
        1.770703     1.884695     1.822826
   Ionic position will be re-read from restart file

   All atoms are allowed to move
   Ionic temperature is not controlled


   Cell Dynamics Parameters (from STDIN)
   -------------------------------------
   internal stress tensor calculated
   Starting cell generated from CELLDM
   Cell parameters will be re-read from restart file
   Constant VOLUME Molecular dynamics
   cell parameters are not allowed to move

    =====================================
    |  BERRY PHASE ELECTRIC FIELD 1        
    =====================================
    | direction    =         3            
    | intensity    =   0.00100 a.u.     
    =====================================

   Verbosity: iverbosity =  0



   Simulation dimensions initialization
   ------------------------------------

   unit vectors of full simulation cell
   in real space:                         in reciprocal space (units 2pi/alat):
   1    23.8740    0.0000    0.0000              1.0000    0.0000    0.0000
   2     0.0000   23.8740    0.0000              0.0000    1.0000    0.0000
   3     0.0000    0.0000   31.8321              0.0000    0.0000    0.7500
 
     Parallelization info
     --------------------
     sticks:   dense  smooth     PW     G-vecs:    dense   smooth      PW
     Min         112      55     13                15304     5404     658
     Max         114      58     16                15338     5430     686
     Sum       18121    9057   2249              2451395   866495  108199
 
 
   Real Mesh
   ---------
   Global Dimensions   Local  Dimensions   Processor Grid
   .X.   .Y.   .Z.     .X.   .Y.   .Z.     .X.   .Y.   .Z.
   160   160   216     160   160     2       1     1   160
   Array leading dimensions ( nr1x, nr2x, nr3x )   =    160   160   216
   Local number of cell to store the grid ( nrxx ) =      51200
   Number of x-y planes for each processors: 
  | 160,   2  | 160,   2  | 160,   2  | 160,   2  | 160,   2
  | 160,   2  | 160,   2  | 160,   2  | 160,   2  | 160,   2
  | 160,   2  | 160,   2  | 160,   2  | 160,   2  | 160,   2
  | 160,   2  | 160,   2  | 160,   2  | 160,   2  | 160,   2
  | 160,   2  | 160,   2  | 160,   2  | 160,   2  | 160,   2
  | 160,   2  | 160,   2  | 160,   2  | 160,   2  | 160,   2
  | 160,   2  | 160,   2  | 160,   2  | 160,   2  | 160,   2
  | 160,   2  | 160,   2  | 160,   2  | 160,   2  | 160,   2
  | 160,   2  | 160,   2  | 160,   2  | 160,   2  | 160,   2
  | 160,   2  | 160,   2  | 160,   2  | 160,   2  | 160,   2
  | 160,   2  | 160,   2  | 160,   2  | 160,   2  | 160,   2
  | 160,   2  | 160,   1  | 160,   1  | 160,   1  | 160,   1
  | 160,   1  | 160,   1  | 160,   1  | 160,   1  | 160,   1
  | 160,   1  | 160,   1  | 160,   1  | 160,   1  | 160,   1
  | 160,   1  | 160,   1  | 160,   1  | 160,   1  | 160,   1
  | 160,   1  | 160,   1  | 160,   1  | 160,   1  | 160,   1
  | 160,   1  | 160,   1  | 160,   1  | 160,   1  | 160,   1
  | 160,   1  | 160,   1  | 160,   1  | 160,   1  | 160,   1
  | 160,   1  | 160,   1  | 160,   1  | 160,   1  | 160,   1
  | 160,   1  | 160,   1  | 160,   1  | 160,   1  | 160,   1
  | 160,   1  | 160,   1  | 160,   1  | 160,   1  | 160,   1
  | 160,   1  | 160,   1  | 160,   1  | 160,   1  | 160,   1
  | 160,   1  | 160,   1  | 160,   1  | 160,   1  | 160,   1
  | 160,   1  | 160,   1  | 160,   1  | 160,   1  | 160,   1
  | 160,   1  | 160,   1  | 160,   1  | 160,   1  | 160,   1
  | 160,   1  | 160,   1  | 160,   1  | 160,   1  | 160,   1
  | 160,   1  | 160,   1  | 160,   1  | 160,   1  | 160,   1
  | 160,   1  | 160,   1  | 160,   1  | 160,   1  | 160,   1
  | 160,   1  | 160,   1  | 160,   1  | 160,   1  | 160,   1
  | 160,   1  | 160,   1  | 160,   1  | 160,   1  | 160,   1
  | 160,   1  | 160,   1  | 160,   1  | 160,   1  | 160,   1
  | 160,   1  | 160,   1  | 160,   1  | 160,   1  | 160,   1
 
   Smooth Real Mesh
   ----------------
   Global Dimensions   Local  Dimensions   Processor Grid
   .X.   .Y.   .Z.     .X.   .Y.   .Z.     .X.   .Y.   .Z.
   108   108   144     108   108     1       1     1   160
   Array leading dimensions ( nr1x, nr2x, nr3x )   =    108   108   144
   Local number of cell to store the grid ( nrxx ) =      11664
   Number of x-y planes for each processors: 
  | 108,   1  | 108,   1  | 108,   1  | 108,   1  | 108,   1
  | 108,   1  | 108,   1  | 108,   1  | 108,   1  | 108,   1
  | 108,   1  | 108,   1  | 108,   1  | 108,   1  | 108,   1
  | 108,   1  | 108,   1  | 108,   1  | 108,   1  | 108,   1
  | 108,   1  | 108,   1  | 108,   1  | 108,   1  | 108,   1
  | 108,   1  | 108,   1  | 108,   1  | 108,   1  | 108,   1
  | 108,   1  | 108,   1  | 108,   1  | 108,   1  | 108,   1
  | 108,   1  | 108,   1  | 108,   1  | 108,   1  | 108,   1
  | 108,   1  | 108,   1  | 108,   1  | 108,   1  | 108,   1
  | 108,   1  | 108,   1  | 108,   1  | 108,   1  | 108,   1
  | 108,   1  | 108,   1  | 108,   1  | 108,   1  | 108,   1
  | 108,   1  | 108,   1  | 108,   1  | 108,   1  | 108,   1
  | 108,   1  | 108,   1  | 108,   1  | 108,   1  | 108,   1
  | 108,   1  | 108,   1  | 108,   1  | 108,   1  | 108,   1
  | 108,   1  | 108,   1  | 108,   1  | 108,   1  | 108,   1
  | 108,   1  | 108,   1  | 108,   1  | 108,   1  | 108,   1
  | 108,   1  | 108,   1  | 108,   1  | 108,   1  | 108,   1
  | 108,   1  | 108,   1  | 108,   1  | 108,   1  | 108,   1
  | 108,   1  | 108,   1  | 108,   1  | 108,   1  | 108,   1
  | 108,   1  | 108,   1  | 108,   1  | 108,   1  | 108,   1
  | 108,   1  | 108,   1  | 108,   1  | 108,   1  | 108,   1
  | 108,   1  | 108,   1  | 108,   1  | 108,   1  | 108,   1
  | 108,   1  | 108,   1  | 108,   1  | 108,   1  | 108,   1
  | 108,   1  | 108,   1  | 108,   1  | 108,   1  | 108,   1
  | 108,   1  | 108,   1  | 108,   1  | 108,   1  | 108,   1
  | 108,   1  | 108,   1  | 108,   1  | 108,   1  | 108,   1
  | 108,   1  | 108,   1  | 108,   1  | 108,   1  | 108,   1
  | 108,   1  | 108,   1  | 108,   1  | 108,   1  | 108,   1
  | 108,   1  | 108,   1  | 108,   1  | 108,   1  | 108,   0
  | 108,   0  | 108,   0  | 108,   0  | 108,   0  | 108,   0
  | 108,   0  | 108,   0  | 108,   0  | 108,   0  | 108,   0
  | 108,   0  | 108,   0  | 108,   0  | 108,   0  | 108,   0
 
   Small Box Real Mesh
   -------------------
   Global Dimensions   Local  Dimensions   Processor Grid
   .X.   .Y.   .Z.     .X.   .Y.   .Z.     .X.   .Y.   .Z.
    30    30    30      30    30    30       1     1     1
   Array leading dimensions ( nr1x, nr2x, nr3x )   =     30    30    30
   Local number of cell to store the grid ( nrxx ) =      27000
 
   unit vectors of box grid cell
   in real space:                         in reciprocal space:
       4.4764    0.0000    0.0000              1.0000    0.0000    0.0000
       0.0000    4.4764    0.0000              0.0000    1.0000    0.0000
       0.0000    0.0000    4.4211              0.0000    0.0000    1.0125
 
   Reciprocal Space Mesh
   ---------------------
   Large Mesh
     Global(ngm_g)    MinLocal       MaxLocal      Average
        1225698           7652           7669        7660.61
   Smooth Mesh
     Global(ngms_g)   MinLocal       MaxLocal      Average
         433248           2702           2715        2707.80
   Wave function Mesh
     Global(ngw_g)    MinLocal       MaxLocal      Average
          54100            329            343         338.12

   Small box Mesh
   ngb =         5979 not distributed to processors


   System geometry initialization
   ------------------------------
   cell parameters read from restart file
   ibrav =    0       cell parameters 


   cell at current step : h(t)
      24.54239       0.00076       0.00000
       0.00076      24.54229       0.00000
       0.00000       0.00000      32.45460

   cell at previous step : h(t-dt)
      24.54239       0.00076       0.00000
       0.00076      24.54229       0.00000
       0.00000       0.00000      32.45460
 
 
   unit vectors of box grid cell
   in real space:                         in reciprocal space:
       4.6017    0.0001    0.0000              1.0000   -0.0000   -0.0000
       0.0001    4.6017    0.0000             -0.0000    1.0000   -0.0000
       0.0000    0.0000    4.5076             -0.0000   -0.0000    1.0209

   Matrix Multiplication Performances
   ortho mmul, time for parallel driver      =   0.00065 with  144 procs

   Constraints matrixes will be distributed block like on
   ortho sub-group =   12*  12 procs



   Pseudopotentials initialization
   -------------------------------
is, nh(is), ngb, kkbeta, lmaxq =     1    8 5979  761    5
 
                        qqq 
  -0.1545  -0.1232   0.0000   0.0000
  -0.1232  -0.0988   0.0000   0.0000
   0.0000   0.0000   0.1445   0.1161
   0.0000   0.0000   0.1161   0.0931
 
is, nh(is), ngb, kkbeta, lmaxq =     2   13 5979  987    5
 
                        qqq 
  -0.0000   0.0000   0.0000
   0.0000   0.5280  -0.5060
   0.0000  -0.5060   0.4853
 


   Common initialization

   Specie:     1
   1  indv=  1   ang. mom=  0
   2  indv=  2   ang. mom=  0
   3  indv=  3   ang. mom=  1
   4  indv=  3   ang. mom=  1
   5  indv=  3   ang. mom=  1
   6  indv=  4   ang. mom=  1
   7  indv=  4   ang. mom=  1
   8  indv=  4   ang. mom=  1
 
                        dion 
   0.3894   0.2818   0.0000   0.0000
   0.2818   0.2028   0.0000   0.0000
   0.0000   0.0000   0.4711   0.4028
   0.0000   0.0000   0.4028   0.3438

   Specie:     2
   1  indv=  1   ang. mom=  1
   2  indv=  1   ang. mom=  1
   3  indv=  1   ang. mom=  1
   4  indv=  2   ang. mom=  2
   5  indv=  2   ang. mom=  2
   6  indv=  2   ang. mom=  2
   7  indv=  2   ang. mom=  2
   8  indv=  2   ang. mom=  2
   9  indv=  3   ang. mom=  2
  10  indv=  3   ang. mom=  2
  11  indv=  3   ang. mom=  2
  12  indv=  3   ang. mom=  2
  13  indv=  3   ang. mom=  2
 
                        dion 
   0.0116   0.0000   0.0000
   0.0000  -1.4888   1.4112
   0.0000   1.4112  -1.3393

   Specie:     3
   1  indv=  1   ang. mom=  0
 
                        dion 
  10.8855

   Cell parameters from input file are used in electron mass preconditioning
   init_tpiba2=    0.06926403
 
   Short Legend and Physical Units in the Output
   ---------------------------------------------
   NFI    [int]          - step index
   EKINC  [HARTREE A.U.] - kinetic energy of the fictitious electronic dynamics
   TEMPH  [K]            - Temperature of the fictitious cell dynamics
   TEMP   [K]            - Ionic temperature
   ETOT   [HARTREE A.U.] - Scf total energy (Kohn-Sham hamiltonian)
   ENTHAL [HARTREE A.U.] - Enthalpy ( ETOT + P * V )
   ECONS  [HARTREE A.U.] - Enthalpy + kinetic energy of ions and cell
   ECONT  [HARTREE A.U.] - Constant of motion for the CP lagrangian
 
 Electronic velocities set to zero

   formf: eself=  5562.85116
   formf:     vps(g=0)=  -0.0000729     rhops(g=0)=  -0.0003057
   formf:     vps(g=0)=  -0.0000727     rhops(g=0)=  -0.0003050
   formf:     vps(g=0)=  -0.0000727     rhops(g=0)=  -0.0003050
   formf:     vps(g=0)=  -0.0000720     rhops(g=0)=  -0.0003028
   formf:     vps(g=0)=  -0.0000720     rhops(g=0)=  -0.0003028
   formf: sum_g vps(g)=   1.1729686 sum_g rhops(g)=  -4.3101249
   formf:     vps(g=0)=   0.0036178     rhops(g=0)=  -0.0005604
   formf:     vps(g=0)=   0.0035924     rhops(g=0)=  -0.0005591
   formf:     vps(g=0)=   0.0035924     rhops(g=0)=  -0.0005591
   formf:     vps(g=0)=   0.0035171     rhops(g=0)=  -0.0005552
   formf:     vps(g=0)=   0.0035171     rhops(g=0)=  -0.0005552
   formf: sum_g vps(g)=   9.1559870 sum_g rhops(g)=  -7.9018956
   formf:     vps(g=0)=   0.0008190     rhops(g=0)=  -0.0001019
   formf:     vps(g=0)=   0.0008121     rhops(g=0)=  -0.0001017
   formf:     vps(g=0)=   0.0008121     rhops(g=0)=  -0.0001017
   formf:     vps(g=0)=   0.0007914     rhops(g=0)=  -0.0001009
   formf:     vps(g=0)=   0.0007914     rhops(g=0)=  -0.0001009
   formf: sum_g vps(g)=   1.8172172 sum_g rhops(g)=  -1.4367083
   Delta V(G=0):   0.049659Ry,    1.351291eV
Initialize Berry phase electric field
 Additional found:           0
 Additional found:           0
 Additional found:           0
 Additional found:           0
 #not found, gtable:    2249.00000000000     
 #not found, gtabin:    2249.00000000000     
 WARNING setting to ZERO ions, electrons and cell velocities without 
 setting to ZERO all velocities could generate meaningles trajectories 
 
  nfi     ekinc              temph  tempp     etot                 enthal               econs                econt              vnhh    xnhh0   vnhp    xnhp0
   4301    0.000000000665501    0.0    0.01   -2898.530490757115   -2898.544460974691   -2898.544450184548   -2898.544450183882   0.0000   0.0000   0.0000   0.0000
Elct. dipole 1  -30.137493  Ionic dipole 1   16.167275
   4302    0.000000013154695    0.0    0.01   -2898.530490726466   -2898.544461268774   -2898.544450519136   -2898.544450505982   0.0000   0.0000   0.0000   0.0000
Elct. dipole 1  -30.137301  Ionic dipole 1   16.166759
   4303    0.000000062949334    0.0    0.01   -2898.530490693945   -2898.544461293490   -2898.544450623198   -2898.544450560249   0.0000   0.0000   0.0000   0.0000
Elct. dipole 1  -30.136855  Ionic dipole 1   16.166255
   4304    0.000000142855713    0.0    0.01   -2898.530490670529   -2898.544461003572   -2898.544450410566   -2898.544450267710   0.0000   0.0000   0.0000   0.0000
Elct. dipole 1  -30.136102  Ionic dipole 1   16.165769
   4305    0.000000194779617    0.0    0.01   -2898.530490714799   -2898.544460549409   -2898.544450003471   -2898.544449808692   0.0000   0.0000   0.0000   0.0000
Elct. dipole 1  -30.135132  Ionic dipole 1   16.165298
   4306    0.000000180794198    0.0    0.01   -2898.530490731725   -2898.544459997925   -2898.544449457682   -2898.544449276887   0.0000   0.0000   0.0000   0.0000
Elct. dipole 1  -30.134098  Ionic dipole 1   16.164832
   4307    0.000000124826953    0.0    0.01   -2898.530490724381   -2898.544459483338   -2898.544448915280   -2898.544448790453   0.0000   0.0000   0.0000   0.0000
Elct. dipole 1  -30.133118  Ionic dipole 1   16.164359
   4308    0.000000071273126    0.0    0.01   -2898.530490708083   -2898.544459065619   -2898.544448456391   -2898.544448385118   0.0000   0.0000   0.0000   0.0000
Elct. dipole 1  -30.132227  Ionic dipole 1   16.163870
   4309    0.000000040781915    0.0    0.01   -2898.530490668623   -2898.544458700105   -2898.544448059908   -2898.544448019126   0.0000   0.0000   0.0000   0.0000
Elct. dipole 1  -30.131395  Ionic dipole 1   16.163363
   4310    0.000000033915098    0.0    0.01   -2898.530490648945   -2898.544458376238   -2898.544447730877   -2898.544447696961   0.0000   0.0000   0.0000   0.0000
Elct. dipole 1  -30.130571  Ionic dipole 1   16.162843
   4311    0.000000047334490    0.0    0.01   -2898.530490707201   -2898.544458121189   -2898.544447496689   -2898.544447449354   0.0000   0.0000   0.0000   0.0000
Elct. dipole 1  -30.129732  Ionic dipole 1   16.162318
   4312    0.000000073365348    0.0    0.01   -2898.530490678721   -2898.544457773690   -2898.544447183414   -2898.544447110049   0.0000   0.0000   0.0000   0.0000
Elct. dipole 1  -30.128891  Ionic dipole 1   16.161796
   4313    0.000000097638407    0.0    0.01   -2898.530490689418   -2898.544457480668   -2898.544446922119   -2898.544446824480   0.0000   0.0000   0.0000   0.0000
Elct. dipole 1  -30.128070  Ionic dipole 1   16.161279
   4314    0.000000107479564    0.0    0.01   -2898.530490695709   -2898.544457215687   -2898.544446676043   -2898.544446568564   0.0000   0.0000   0.0000   0.0000
Elct. dipole 1  -30.127287  Ionic dipole 1   16.160767
   4315    0.000000100665517    0.0    0.01   -2898.530490729363   -2898.544457015911   -2898.544446480535   -2898.544446379869   0.0000   0.0000   0.0000   0.0000
Elct. dipole 1  -30.126541  Ionic dipole 1   16.160255
   4316    0.000000084356329    0.0    0.01   -2898.530490796526   -2898.544456885435   -2898.544446344546   -2898.544446260189   0.0000   0.0000   0.0000   0.0000
Elct. dipole 1  -30.125827  Ionic dipole 1   16.159738
   4317    0.000000068069285    0.0    0.01   -2898.530490777021   -2898.544456698666   -2898.544446150221   -2898.544446082152   0.0000   0.0000   0.0000   0.0000
Elct. dipole 1  -30.125135  Ionic dipole 1   16.159213
   4318    0.000000058351310    0.0    0.01   -2898.530490840929   -2898.544456613117   -2898.544446061837   -2898.544446003486   0.0000   0.0000   0.0000   0.0000
Elct. dipole 1  -30.124452  Ionic dipole 1   16.158680
   4319    0.000000057093239    0.0    0.01   -2898.530490847279   -2898.544456462199   -2898.544445915893   -2898.544445858799   0.0000   0.0000   0.0000   0.0000
Elct. dipole 1  -30.123756  Ionic dipole 1   16.158141
   4320    0.000000062123553    0.0    0.01   -2898.530490877039   -2898.544456291741   -2898.544445757069   -2898.544445694945   0.0000   0.0000   0.0000   0.0000
Elct. dipole 1  -30.123013  Ionic dipole 1   16.157599
   4321    0.000000069223519    0.0    0.01   -2898.530490933090   -2898.544456076854   -2898.544445556706   -2898.544445487483   0.0000   0.0000   0.0000   0.0000
Elct. dipole 1  -30.122200  Ionic dipole 1   16.157056
   4322    0.000000074578178    0.0    0.01   -2898.530490936765   -2898.544455738477   -2898.544445231830   -2898.544445157252   0.0000   0.0000   0.0000   0.0000
Elct. dipole 1  -30.121316  Ionic dipole 1   16.156514
   4323    0.000000076274320    0.0    0.01   -2898.530491024468   -2898.544455446394   -2898.544444949920   -2898.544444873646   0.0000   0.0000   0.0000   0.0000
Elct. dipole 1  -30.120394  Ionic dipole 1   16.155972
   4324    0.000000074451883    0.0    0.01   -2898.530490978906   -2898.544455034952   -2898.544444545050   -2898.544444470599   0.0000   0.0000   0.0000   0.0000
Elct. dipole 1  -30.119484  Ionic dipole 1   16.155428
   4325    0.000000070602813    0.0    0.01   -2898.530491041656   -2898.544454786372   -2898.544444300673   -2898.544444230070   0.0000   0.0000   0.0000   0.0000
Elct. dipole 1  -30.118625  Ionic dipole 1   16.154880
   4326    0.000000066539921    0.0    0.01   -2898.530491049048   -2898.544454543295   -2898.544444061254   -2898.544443994714   0.0000   0.0000   0.0000   0.0000
Elct. dipole 1  -30.117822  Ionic dipole 1   16.154328
   4327    0.000000063646972    0.0    0.01   -2898.530491027431   -2898.544454302413   -2898.544443825023   -2898.544443761376   0.0000   0.0000   0.0000   0.0000
Elct. dipole 1  -30.117046  Ionic dipole 1   16.153771
   4328    0.000000062662254    0.0    0.01   -2898.530491031764   -2898.544454073602   -2898.544443602527   -2898.544443539865   0.0000   0.0000   0.0000   0.0000
Elct. dipole 1  -30.116253  Ionic dipole 1   16.153211
   4329    0.000000063484813    0.0    0.01   -2898.530491009109   -2898.544453771392   -2898.544443308059   -2898.544443244574   0.0000   0.0000   0.0000   0.0000
Elct. dipole 1  -30.115412  Ionic dipole 1   16.152650
   4330    0.000000065025339    0.0    0.01   -2898.530490986940   -2898.544453420362   -2898.544442965422   -2898.544442900396   0.0000   0.0000   0.0000   0.0000
Elct. dipole 1  -30.114521  Ionic dipole 1   16.152087
   4331    0.000000065925253    0.0    0.01   -2898.530490992100   -2898.544453071207   -2898.544442624491   -2898.544442558566   0.0000   0.0000   0.0000   0.0000
Elct. dipole 1  -30.113602  Ionic dipole 1   16.151523
   4332    0.000000065721226    0.0    0.01   -2898.530490997663   -2898.544452729727   -2898.544442290516   -2898.544442224794   0.0000   0.0000   0.0000   0.0000
Elct. dipole 1  -30.112689  Ionic dipole 1   16.150957
   4333    0.000000064906887    0.0    0.01   -2898.530490977126   -2898.544452391516   -2898.544441958939   -2898.544441894032   0.0000   0.0000   0.0000   0.0000
Elct. dipole 1  -30.111802  Ionic dipole 1   16.150387
   4334    0.000000063963224    0.0    0.01   -2898.530491038508   -2898.544452166554   -2898.544441739936   -2898.544441675972   0.0000   0.0000   0.0000   0.0000
Elct. dipole 1  -30.110943  Ionic dipole 1   16.149815
   4335    0.000000062940579    0.0    0.01   -2898.530491018242   -2898.544451876489   -2898.544441455524   -2898.544441392583   0.0000   0.0000   0.0000   0.0000
Elct. dipole 1  -30.110099  Ionic dipole 1   16.149240
   4336    0.000000061903785    0.0    0.01   -2898.530490996559   -2898.544451581119   -2898.544441165838   -2898.544441103934   0.0000   0.0000   0.0000   0.0000
Elct. dipole 1  -30.109248  Ionic dipole 1   16.148663
   4337    0.000000061148943    0.0    0.01   -2898.530490973957   -2898.544451265851   -2898.544440856470   -2898.544440795321   0.0000   0.0000   0.0000   0.0000
Elct. dipole 1  -30.108376  Ionic dipole 1   16.148084
   4338    0.000000060859323    0.0    0.01   -2898.530490951428   -2898.544450927685   -2898.544440524432   -2898.544440463573   0.0000   0.0000   0.0000   0.0000
Elct. dipole 1  -30.107479  Ionic dipole 1   16.147503
   4339    0.000000060883070    0.0    0.01   -2898.530490983928   -2898.544450628408   -2898.544440231407   -2898.544440170524   0.0000   0.0000   0.0000   0.0000
Elct. dipole 1  -30.106565  Ionic dipole 1   16.146921
   4340    0.000000060931908    0.0    0.01   -2898.530491007812   -2898.544450317595   -2898.544439926821   -2898.544439865889   0.0000   0.0000   0.0000   0.0000
Elct. dipole 1  -30.105646  Ionic dipole 1   16.146336
   4341    0.000000060835207    0.0    0.01   -2898.530491051469   -2898.544450037227   -2898.544439652520   -2898.544439591685   0.0000   0.0000   0.0000   0.0000
Elct. dipole 1  -30.104735  Ionic dipole 1   16.145749
   4342    0.000000060593179    0.0    0.01   -2898.530491004137   -2898.544449684035   -2898.544439305177   -2898.544439244584   0.0000   0.0000   0.0000   0.0000
Elct. dipole 1  -30.103840  Ionic dipole 1   16.145160
   4343    0.000000060320532    0.0    0.01   -2898.530490995011   -2898.544449385808   -2898.544439012590   -2898.544438952270   0.0000   0.0000   0.0000   0.0000
Elct. dipole 1  -30.102959  Ionic dipole 1   16.144568
   4344    0.000000060139094    0.0    0.01   -2898.530490938645   -2898.544449047004   -2898.544438679257   -2898.544438619118   0.0000   0.0000   0.0000   0.0000
Elct. dipole 1  -30.102084  Ionic dipole 1   16.143975
   4345    0.000000060024773    0.0    0.01   -2898.530490909639   -2898.544448728475   -2898.544438366037   -2898.544438306013   0.0000   0.0000   0.0000   0.0000
Elct. dipole 1  -30.101199  Ionic dipole 1   16.143380
   4346    0.000000059799923    0.0    0.01   -2898.530490911163   -2898.544448422996   -2898.544438065658   -2898.544438005858   0.0000   0.0000   0.0000   0.0000
Elct. dipole 1  -30.100296  Ionic dipole 1   16.142784
   4347    0.000000059354370    0.0    0.01   -2898.530490893417   -2898.544448079199   -2898.544437726666   -2898.544437667312   0.0000   0.0000   0.0000   0.0000
Elct. dipole 1  -30.099373  Ionic dipole 1   16.142187
   4348    0.000000058772623    0.0    0.01   -2898.530490906332   -2898.544447754824   -2898.544437406742   -2898.544437347969   0.0000   0.0000   0.0000   0.0000
Elct. dipole 1  -30.098436  Ionic dipole 1   16.141588
   4349    0.000000058171494    0.0    0.01   -2898.530490918805   -2898.544447431139   -2898.544437087176   -2898.544437029004   0.0000   0.0000   0.0000   0.0000
Elct. dipole 1  -30.097499  Ionic dipole 1   16.140986
   4350    0.000000057590328    0.0    0.01   -2898.530490872327   -2898.544447059359   -2898.544436719316   -2898.544436661726   0.0000   0.0000   0.0000   0.0000
Elct. dipole 1  -30.096570  Ionic dipole 1   16.140383
   4351    0.000000057139960    0.0    0.01   -2898.530490903362   -2898.544446777880   -2898.544436441760   -2898.544436384620   0.0000   0.0000   0.0000   0.0000
Elct. dipole 1  -30.095652  Ionic dipole 1   16.139778
   4352    0.000000057041975    0.0    0.01   -2898.530490852508   -2898.544446421320   -2898.544436089270   -2898.544436032228   0.0000   0.0000   0.0000   0.0000
Elct. dipole 1  -30.094740  Ionic dipole 1   16.139171
   4353    0.000000057358505    0.0    0.01   -2898.530490911685   -2898.544446172202   -2898.544435844358   -2898.544435786999   0.0000   0.0000   0.0000   0.0000
Elct. dipole 1  -30.093824  Ionic dipole 1   16.138563
   4354    0.000000057816525    0.0    0.01   -2898.530490947267   -2898.544445889918   -2898.544435566214   -2898.544435508397   0.0000   0.0000   0.0000   0.0000
Elct. dipole 1  -30.092897  Ionic dipole 1   16.137954
   4355    0.000000058015616    0.0    0.01   -2898.530490957619   -2898.544445571673   -2898.544435251733   -2898.544435193718   0.0000   0.0000   0.0000   0.0000
Elct. dipole 1  -30.091958  Ionic dipole 1   16.137344
   4356    0.000000057737091    0.0    0.01   -2898.530490941321   -2898.544445220115   -2898.544434903303   -2898.544434845566   0.0000   0.0000   0.0000   0.0000
Elct. dipole 1  -30.091011  Ionic dipole 1   16.136732
   4357    0.000000057031396    0.0    0.01   -2898.530490923964   -2898.544444866690   -2898.544434552300   -2898.544434495268   0.0000   0.0000   0.0000   0.0000
Elct. dipole 1  -30.090063  Ionic dipole 1   16.136120
   4358    0.000000056128820    0.0    0.01   -2898.530490932009   -2898.544444541891   -2898.544434229380   -2898.544434173251   0.0000   0.0000   0.0000   0.0000
Elct. dipole 1  -30.089116  Ionic dipole 1   16.135506
   4359    0.000000055326152    0.0    0.01   -2898.530490938476   -2898.544444219299   -2898.544433908452   -2898.544433853126   0.0000   0.0000   0.0000   0.0000
Elct. dipole 1  -30.088171  Ionic dipole 1   16.134890
   4360    0.000000054879171    0.0    0.01   -2898.530490917472   -2898.544443870870   -2898.544433561776   -2898.544433506896   0.0000   0.0000   0.0000   0.0000
Elct. dipole 1  -30.087226  Ionic dipole 1   16.134273
   4361    0.000000054897214    0.0    0.01   -2898.530490924925   -2898.544443549596   -2898.544433242472   -2898.544433187575   0.0000   0.0000   0.0000   0.0000
Elct. dipole 1  -30.086279  Ionic dipole 1   16.133654
   4362    0.000000055274450    0.0    0.01   -2898.530490935055   -2898.544443227635   -2898.544432922584   -2898.544432867310   0.0000   0.0000   0.0000   0.0000
Elct. dipole 1  -30.085327  Ionic dipole 1   16.133035
   4363    0.000000055718261    0.0    0.01   -2898.530490893105   -2898.544442849620   -2898.544432546464   -2898.544432490745   0.0000   0.0000   0.0000   0.0000
Elct. dipole 1  -30.084371  Ionic dipole 1   16.132415
   4364    0.000000055908945    0.0    0.01   -2898.530490851525   -2898.544442468555   -2898.544432166819   -2898.544432110910   0.0000   0.0000   0.0000   0.0000
Elct. dipole 1  -30.083411  Ionic dipole 1   16.131794
   4365    0.000000055699847    0.0    0.01   -2898.530490862791   -2898.544442138038   -2898.544431837082   -2898.544431781382   0.0000   0.0000   0.0000   0.0000
Elct. dipole 1  -30.082447  Ionic dipole 1   16.131172
   4366    0.000000055182567    0.0    0.01   -2898.530490871850   -2898.544441804256   -2898.544431503468   -2898.544431448285   0.0000   0.0000   0.0000   0.0000
Elct. dipole 1  -30.081482  Ionic dipole 1   16.130549
   4367    0.000000054575642    0.0    0.01   -2898.530490906557   -2898.544441496125   -2898.544431195064   -2898.544431140489   0.0000   0.0000   0.0000   0.0000
Elct. dipole 1  -30.080515  Ionic dipole 1   16.129926
   4368    0.000000054076722    0.0    0.01   -2898.530490915101   -2898.544441162436   -2898.544430860869   -2898.544430806792   0.0000   0.0000   0.0000   0.0000
Elct. dipole 1  -30.079548  Ionic dipole 1   16.129301
   4369    0.000000053790700    0.0    0.01   -2898.530490925877   -2898.544440831503   -2898.544430529328   -2898.544430475537   0.0000   0.0000   0.0000   0.0000
Elct. dipole 1  -30.078581  Ionic dipole 1   16.128675
   4370    0.000000053719009    0.0    0.01   -2898.530490912062   -2898.544440475775   -2898.544430172902   -2898.544430119183   0.0000   0.0000   0.0000   0.0000
Elct. dipole 1  -30.077613  Ionic dipole 1   16.128049
   4371    0.000000053777613    0.0    0.01   -2898.530490872105   -2898.544440092708   -2898.544429788961   -2898.544429735184   0.0000   0.0000   0.0000   0.0000
Elct. dipole 1  -30.076642  Ionic dipole 1   16.127422
   4372    0.000000053848131    0.0    0.01   -2898.530490912584   -2898.544439788178   -2898.544429483267   -2898.544429429419   0.0000   0.0000   0.0000   0.0000
Elct. dipole 1  -30.075670  Ionic dipole 1   16.126794
   4373    0.000000053844439    0.0    0.01   -2898.530490951640   -2898.544439480310   -2898.544429173857   -2898.544429120012   0.0000   0.0000   0.0000   0.0000
Elct. dipole 1  -30.074695  Ionic dipole 1   16.126166
   4374    0.000000053746915    0.0    0.01   -2898.530490962177   -2898.544439142613   -2898.544428834212   -2898.544428780465   0.0000   0.0000   0.0000   0.0000
Elct. dipole 1  -30.073718  Ionic dipole 1   16.125537
   4375    0.000000053586327    0.0    0.01   -2898.530490973156   -2898.544438804817   -2898.544428494080   -2898.544428440493   0.0000   0.0000   0.0000   0.0000
Elct. dipole 1  -30.072740  Ionic dipole 1   16.124908
   4376    0.000000053404140    0.0    0.01   -2898.530490931472   -2898.544438414279   -2898.544428100847   -2898.544428047443   0.0000   0.0000   0.0000   0.0000
Elct. dipole 1  -30.071762  Ionic dipole 1   16.124279
   4377    0.000000053223806    0.0    0.01   -2898.530490891461   -2898.544438025269   -2898.544427708801   -2898.544427655578   0.0000   0.0000   0.0000   0.0000
Elct. dipole 1  -30.070782  Ionic dipole 1   16.123649
   4378    0.000000053048624    0.0    0.01   -2898.530490852799   -2898.544437637049   -2898.544427317208   -2898.544427264159   0.0000   0.0000   0.0000   0.0000
Elct. dipole 1  -30.069802  Ionic dipole 1   16.123018
   4379    0.000000052879237    0.0    0.01   -2898.530490841272   -2898.544437274933   -2898.544426951382   -2898.544426898502   0.0000   0.0000   0.0000   0.0000
Elct. dipole 1  -30.068821  Ionic dipole 1   16.122387
   4380    0.000000052728204    0.0    0.01   -2898.530490883170   -2898.544436964959   -2898.544426637368   -2898.544426584639   0.0000   0.0000   0.0000   0.0000
Elct. dipole 1  -30.067838  Ionic dipole 1   16.121756
   4381    0.000000052617028    0.0    0.01   -2898.530490951278   -2898.544436679925   -2898.544426347984   -2898.544426295367   0.0000   0.0000   0.0000   0.0000
Elct. dipole 1  -30.066853  Ionic dipole 1   16.121124
   4382    0.000000052561136    0.0    0.01   -2898.530490964837   -2898.544436339241   -2898.544426002659   -2898.544425950098   0.0000   0.0000   0.0000   0.0000
Elct. dipole 1  -30.065867  Ionic dipole 1   16.120493
   4383    0.000000052556877    0.0    0.01   -2898.530490951839   -2898.544435971110   -2898.544425629598   -2898.544425577041   0.0000   0.0000   0.0000   0.0000
Elct. dipole 1  -30.064880  Ionic dipole 1   16.119861
   4384    0.000000052578182    0.0    0.01   -2898.530490967649   -2898.544435631059   -2898.544425284300   -2898.544425231722   0.0000   0.0000   0.0000   0.0000
Elct. dipole 1  -30.063892  Ionic dipole 1   16.119229
   4385    0.000000052583611    0.0    0.01   -2898.530491010549   -2898.544435317446   -2898.544424965081   -2898.544424912498   0.0000   0.0000   0.0000   0.0000
Elct. dipole 1  -30.062904  Ionic dipole 1   16.118597
   4386    0.000000052535579    0.0    0.01   -2898.530491029348   -2898.544434979032   -2898.544424620658   -2898.544424568122   0.0000   0.0000   0.0000   0.0000
Elct. dipole 1  -30.061914  Ionic dipole 1   16.117965
   4387    0.000000052422911    0.0    0.01   -2898.530491102184   -2898.544434693824   -2898.544424329022   -2898.544424276599   0.0000   0.0000   0.0000   0.0000
Elct. dipole 1  -30.060924  Ionic dipole 1   16.117333
   4388    0.000000052270610    0.0    0.01   -2898.530491144890   -2898.544434377402   -2898.544424005770   -2898.544423953500   0.0000   0.0000   0.0000   0.0000
Elct. dipole 1  -30.059933  Ionic dipole 1   16.116701
   4389    0.000000052127852    0.0    0.01   -2898.530491134112   -2898.544434006199   -2898.544423627385   -2898.544423575257   0.0000   0.0000   0.0000   0.0000
Elct. dipole 1  -30.058941  Ionic dipole 1   16.116069
   4390    0.000000052042132    0.0    0.01   -2898.530491123649   -2898.544433633991   -2898.544423247692   -2898.544423195649   0.0000   0.0000   0.0000   0.0000
Elct. dipole 1  -30.057947  Ionic dipole 1   16.115437
   4391    0.000000052034664    0.0    0.01   -2898.530491142278   -2898.544433289837   -2898.544422895776   -2898.544422843741   0.0000   0.0000   0.0000   0.0000
Elct. dipole 1  -30.056953  Ionic dipole 1   16.114805
   4392    0.000000052089590    0.0    0.01   -2898.530491159148   -2898.544432943316   -2898.544422541207   -2898.544422489117   0.0000   0.0000   0.0000   0.0000
Elct. dipole 1  -30.055958  Ionic dipole 1   16.114174
   4393    0.000000052163850    0.0    0.01   -2898.530491177272   -2898.544432597748   -2898.544422187264   -2898.544422135100   0.0000   0.0000   0.0000   0.0000
Elct. dipole 1  -30.054963  Ionic dipole 1   16.113543
   4394    0.000000052209880    0.0    0.01   -2898.530491202328   -2898.544432258863   -2898.544421839632   -2898.544421787422   0.0000   0.0000   0.0000   0.0000
Elct. dipole 1  -30.053968  Ionic dipole 1   16.112912
   4395    0.000000052199822    0.0    0.01   -2898.530491191585   -2898.544431883859   -2898.544421455478   -2898.544421403278   0.0000   0.0000   0.0000   0.0000
Elct. dipole 1  -30.052974  Ionic dipole 1   16.112281
   4396    0.000000052140961    0.0    0.01   -2898.530491212150   -2898.544431539424   -2898.544421101493   -2898.544421049352   0.0000   0.0000   0.0000   0.0000
Elct. dipole 1  -30.051979  Ionic dipole 1   16.111651
   4397    0.000000052068209    0.0    0.01   -2898.530491204757   -2898.544431166162   -2898.544420718312   -2898.544420666244   0.0000   0.0000   0.0000   0.0000
Elct. dipole 1  -30.050983  Ionic dipole 1   16.111022
   4398    0.000000052021039    0.0    0.01   -2898.530491249860   -2898.544430844438   -2898.544420386344   -2898.544420334323   0.0000   0.0000   0.0000   0.0000
Elct. dipole 1  -30.049987  Ionic dipole 1   16.110393
   4399    0.000000052025017    0.0    0.01   -2898.530491299842   -2898.544430526748   -2898.544420058115   -2898.544420006090   0.0000   0.0000   0.0000   0.0000
Elct. dipole 1  -30.048991  Ionic dipole 1   16.109764

 * Physical Quantities at step:  4400

   from rhoofr: total integrated electronic density
   in g-space =   1236.000000   in r-space =  1236.000000
     Total Electronic Pressure (GPa)       41.05813   4400
     Pressure of Nuclei (GPa)             0.00001   4400
     Pressure Total (GPa)             0.05023   4400


                total energy =    -2898.53049133033 Hartree a.u.
              kinetic energy =     1316.43517 Hartree a.u.
        electrostatic energy =    -3924.26928 Hartree a.u.
                         esr =        0.00000 Hartree a.u.
                       eself =     5562.85116 Hartree a.u.
      pseudopotential energy =      261.77411 Hartree a.u.
  n-l pseudopotential energy =      193.28301 Hartree a.u.
 exchange-correlation energy =     -745.76744 Hartree a.u.
           average potential =        0.00000 Hartree a.u.



   Eigenvalues (eV), kp =   1 , spin =  1

  -12.76  -12.59  -12.51  -12.50  -12.40  -12.40  -12.39  -12.31  -12.27  -12.26
  -12.26  -12.25  -12.19  -12.19  -12.18  -12.15  -12.14  -12.10  -12.09  -12.06
  -12.04  -12.04  -12.01  -11.97  -11.97  -11.97  -11.97  -11.93  -11.89  -11.84
  -11.83  -11.83  -11.81  -11.79  -11.79  -11.77  -11.74  -11.74  -11.73  -11.71
  -11.70  -11.69  -11.68  -11.68  -11.67  -11.67  -11.66  -11.65  -11.65  -11.63
  -11.62  -11.60  -11.59  -11.59  -11.58  -11.57  -11.56  -11.56  -11.56  -11.55
  -11.55  -11.55  -11.54  -11.53  -11.53  -11.52  -11.52  -11.52  -11.51  -11.51
  -11.51  -11.51  -11.50  -11.48  -11.48  -11.48  -11.48  -11.47  -11.45  -11.45
  -11.44  -11.44  -11.44  -11.43  -11.42  -11.42  -11.41  -11.41  -11.40  -11.40
  -11.40  -11.40  -11.39  -11.39  -11.39  -11.38  -11.38  -11.38  -11.37  -11.36
  -11.36  -11.36  -11.36  -11.35  -11.35  -11.34  -11.34  -11.33  -11.31  -11.29
  -11.27  -11.27  -11.26  -11.26  -11.25  -11.25  -11.25  -11.24  -11.23  -11.23
  -11.22  -11.22  -11.22  -11.22  -11.21  -11.18  -11.17  -11.15  -11.15  -11.15
  -11.14  -11.13  -11.12  -11.12  -11.11  -11.11  -11.11  -11.03   -1.25   -0.87
   -0.82   -0.76   -0.73   -0.72   -0.65   -0.59   -0.55   -0.53   -0.51   -0.47
   -0.38   -0.34   -0.33   -0.31   -0.27   -0.26   -0.24   -0.21   -0.20   -0.19
   -0.16   -0.15   -0.15   -0.14   -0.14   -0.12   -0.09   -0.08   -0.07   -0.07
   -0.06   -0.05   -0.04   -0.03   -0.02    0.01    0.02    0.02    0.03    0.04
    0.05    0.06    0.08    0.08    0.09    0.11    0.11    0.11    0.12    0.12
    0.13    0.14    0.14    0.16    0.17    0.18    0.20    0.21    0.23    0.24
    0.24    0.25    0.25    0.27    0.28    0.32    0.32    0.37    0.37    0.38
    0.38    0.39    0.40    0.41    0.41    0.43    0.44    0.45    0.45    0.47
    0.47    0.48    0.49    0.50    0.50    0.53    0.53    0.53    0.53    0.54
    0.54    0.56    0.57    0.57    0.57    0.57    0.57    0.59    0.60    0.60
    0.61    0.62    0.62    0.63    0.63    0.64    0.65    0.65    0.66    0.67
    0.67    0.68    0.69    0.71    0.72    0.73    0.74    0.74    0.76    0.76
    0.77    0.79    0.79    0.79    0.80    0.81    0.81    0.82    0.84    0.87
    0.89    0.89    0.90    0.90    0.92    0.92    0.93    0.94    0.94    0.95
    0.97    0.98    0.99    1.03    1.04    1.06    1.08    1.09    1.10    1.10
    1.13    1.14    1.15    1.16    1.17    1.20    1.23    1.26    1.26    1.31
    1.32    1.32    1.35    1.36    1.38    1.46    1.48    1.48    1.48    1.50
    1.52    1.53    1.54    1.55    1.57    1.58    1.59    1.59    1.63    1.63
    1.65    1.66    1.69    1.69    1.73    1.74    1.76    1.76    1.78    1.79
    1.79    1.80    1.80    1.84    1.84    1.85    1.86    1.88    1.88    1.90
    1.90    1.92    1.93    1.97    1.97    1.98    1.98    2.01    2.05    2.07
    2.11    2.13    2.13    2.14    2.17    2.17    2.17    2.18    2.20    2.20
    2.22    2.22    2.22    2.23    2.24    2.27    2.27    2.27    2.28    2.33
    2.34    2.35    2.35    2.36    2.37    2.37    2.38    2.40    2.41    2.42
    2.43    2.44    2.44    2.45    2.45    2.45    2.48    2.48    2.50    2.50
    2.51    2.51    2.53    2.53    2.54    2.54    2.55    2.55    2.56    2.57
    2.57    2.57    2.59    2.61    2.62    2.62    2.62    2.62    2.64    2.65
    2.66    2.66    2.66    2.66    2.67    2.68    2.68    2.69    2.69    2.70
    2.70    2.71    2.73    2.73    2.74    2.75    2.77    2.77    2.78    2.79
    2.80    2.80    2.81    2.82    2.83    2.85    2.85    2.86    2.87    2.90
    2.90    2.91    2.91    2.91    2.93    2.93    2.94    2.95    2.96    2.97
    2.98    2.98    3.00    3.01    3.01    3.01    3.01    3.02    3.03    3.04
    3.04    3.05    3.05    3.07    3.07    3.08    3.08    3.09    3.10    3.10
    3.10    3.10    3.11    3.12    3.12    3.13    3.13    3.14    3.15    3.15
    3.17    3.18    3.18    3.18    3.19    3.19    3.20    3.20    3.21    3.21
    3.23    3.23    3.23    3.23    3.23    3.24    3.26    3.26    3.27    3.27
    3.27    3.28    3.29    3.29    3.29    3.29    3.30    3.31    3.32    3.32
    3.32    3.33    3.34    3.34    3.35    3.36    3.36    3.37    3.38    3.38
    3.39    3.40    3.41    3.41    3.41    3.43    3.44    3.44    3.44    3.46
    3.46    3.47    3.47    3.48    3.48    3.49    3.50    3.50    3.51    3.51
    3.52    3.53    3.53    3.53    3.54    3.55    3.55    3.57    3.58    3.59
    3.59    3.59    3.59    3.60    3.62    3.62    3.63    3.64    3.65    3.65
    3.65    3.65    3.65    3.66    3.67    3.68    3.68    3.69    3.72    3.72
    3.74    3.74    3.75    3.75    3.76    3.79    3.79    3.79    3.80    3.81
    3.84    3.85    3.85    3.86    3.87    3.87    3.89    3.90    3.91    3.92
    3.92    3.92    3.93    3.93    3.95    3.97    3.98    3.98    4.00    4.04
    4.05    4.05    4.16    4.18    4.19    4.37    4.39    4.41    4.45    4.50
    4.51    4.60    4.60    4.79    6.03    6.05    6.27    6.66
 
 
   CELL_PARAMETERS
   24.54239043    0.00076274    0.00000017
    0.00076273   24.54229147    0.00000114
    0.00000023    0.00000151   32.45460242

   System Density [g/cm^3] :              3.9303362633


   System Volume [A.U.^3] :          19548.2670367029


   Center of mass square displacement (a.u.):   0.000000

   Total stress (GPa)
       -0.00937565         0.02261547         0.00013225
        0.02261547        -0.00934392         0.00009445
        0.00013226         0.00009445         0.16940246
   ATOMIC_POSITIONS
   Ag      0.21324578051224E+01     0.13897235426811E+02     0.18303925184892E+02
   Ag      0.55992631460381E+01     0.10430018614470E+02     0.18303948771813E+02
   Ag      0.67399246569606E+01     0.15037341031497E+02     0.18679092854267E+02
   Ag      0.99178057009488E+00     0.92898512717882E+01     0.18678978243880E+02
   Ag      0.21509510762146E+01     0.10448913723419E+02     0.14100881032068E+02
   Ag      0.21293279655724E+01     0.13899625394267E+02     0.99120654697354E+01
   Ag      0.56015359671954E+01     0.10426903517268E+02     0.99119665203437E+01
   Ag      0.67226533410481E+01     0.15020059760385E+02     0.95029961667230E+01
   Ag      0.69444797012884E+01     0.90858759537793E+01     0.14116574921456E+02
   Ag      0.78799530195589E+00     0.15242440728916E+02     0.14116644292609E+02
   Ag      0.55811474695882E+01     0.13878931010613E+02     0.14100722207777E+02
   Ag      0.10081545227043E+01     0.93063691082130E+01     0.95036770470996E+01
   Mg      0.22240801077250E+02     0.22393352320749E+02     0.26233953469681E+02
   Mg      0.22237918774571E+02     0.18334201297631E+02     0.30264716723240E+02
   Mg      0.18172446203426E+02     0.22399843869687E+02     0.30251307541978E+02
   Mg      0.18179077164764E+02     0.18331442889920E+02     0.26233986270469E+02
   Mg      0.22168590549759E+02     0.22439803385399E+02     0.18153743306835E+02
   Mg      0.22274849402721E+02     0.18297660911384E+02     0.22175830087848E+02
   Mg      0.18173820424091E+02     0.22398945694326E+02     0.22215001150002E+02
   Mg      0.18133015288806E+02     0.18404598856994E+02     0.18153781547475E+02
   Mg      0.22169531627420E+02     0.22439062788933E+02     0.98839863894437E+01
   Mg      0.21966982562737E+02     0.18605421685571E+02     0.13999755380539E+02
   Mg      0.18113228677390E+02     0.22459954156182E+02     0.14020783164509E+02
   Mg      0.18133565987794E+02     0.18403577127816E+02     0.98839409919092E+01
   Mg      0.22239422807742E+02     0.22393968921084E+02     0.18233726519524E+01
   Mg      0.22276962170513E+02     0.18295393058512E+02     0.58740200873509E+01
   Mg      0.18174528656966E+02     0.22398079380323E+02     0.58355224822585E+01
   Mg      0.18178367301817E+02     0.18332713131428E+02     0.18233471082828E+01
   Mg      0.22180992871275E+02     0.14236133467698E+02     0.26323989398340E+02
   Mg      0.22176621481886E+02     0.10095649096777E+02     0.30265866486489E+02
   Mg      0.18155370057751E+02     0.14231004264670E+02     0.30261770622970E+02
   Mg      0.18143688597441E+02     0.10095511013105E+02     0.26270926662489E+02
   Mg      0.21813344526003E+02     0.14180998045618E+02     0.18092290691593E+02
   Mg      0.22141169091292E+02     0.10143413203187E+02     0.22331893567823E+02
   Mg      0.18140896742749E+02     0.14235819483038E+02     0.22269200351389E+02
   Mg      0.17986236708097E+02     0.10012927037970E+02     0.18208269607881E+02
   Mg      0.21828363086080E+02     0.14185012241691E+02     0.99296071035864E+01
   Mg      0.21786742322331E+02     0.10131528213421E+02     0.13988294687029E+02
   Mg      0.17917204237932E+02     0.14328233730926E+02     0.14031128116734E+02
   Mg      0.17966867310120E+02     0.10018922353704E+02     0.98388677290799E+01
   Mg      0.22187786511976E+02     0.14230032570146E+02     0.17645975497080E+01
   Mg      0.22158200180180E+02     0.10140519600225E+02     0.57681827365263E+01
   Mg      0.18143565806100E+02     0.14230665028855E+02     0.57725150699110E+01
   Mg      0.18148980882682E+02     0.10093568176973E+02     0.17888144431313E+01
   Mg      0.22236555961862E+02     0.59926475528031E+01     0.26251452890082E+02
   Mg      0.22238946637953E+02     0.19216323579877E+01     0.30258908531780E+02
   Mg      0.18165589028702E+02     0.59950538178717E+01     0.30258913327313E+02
   Mg      0.18171176461029E+02     0.19272251951284E+01     0.26234282280830E+02
   Mg      0.22077499063460E+02     0.58336745563394E+01     0.18076962601853E+02
   Mg      0.22235611714462E+02     0.19162730159734E+01     0.22212538867005E+02
   Mg      0.18160109174348E+02     0.59916997903167E+01     0.22212550288491E+02
   Mg      0.18135297231714E+02     0.18913776354391E+01     0.18149484267301E+02
   Mg      0.22071356774354E+02     0.58275635222309E+01     0.99302372396149E+01
   Mg      0.22163916867288E+02     0.18871936107524E+01     0.14015806162556E+02
   Mg      0.18131049690953E+02     0.59199002924398E+01     0.14015801327107E+02
   Mg      0.18135902019127E+02     0.18919732208395E+01     0.98935805860766E+01
   Mg      0.22242085977384E+02     0.59981029182626E+01     0.18223065173724E+01
   Mg      0.22238141734488E+02     0.19145855627000E+01     0.58329997744485E+01
   Mg      0.18158400318440E+02     0.59941416351227E+01     0.58329836774864E+01
   Mg      0.18168768533409E+02     0.19247832079007E+01     0.18178785664475E+01
   Mg      0.14102966361470E+02     0.22400460205374E+02     0.26234307564443E+02
   Mg      0.14108410629062E+02     0.18332385683356E+02     0.30258907091928E+02
   Mg      0.10034888848695E+02     0.22405929219826E+02     0.30258892270619E+02
   Mg      0.10037389342777E+02     0.18334958926582E+02     0.26251516481925E+02
   Mg      0.14139402504112E+02     0.22437022003152E+02     0.18149568661889E+02
   Mg      0.14114239169220E+02     0.18336286079308E+02     0.22212677335726E+02
   Mg      0.10038717275522E+02     0.22411780585982E+02     0.22212690354479E+02
   Mg      0.10196985923260E+02     0.18494565746336E+02     0.18077304717560E+02
   Mg      0.14138592874996E+02     0.22436228463530E+02     0.98935486259478E+01
   Mg      0.14143364953878E+02     0.18408549564189E+02     0.14015815367657E+02
   Mg      0.10110938655503E+02     0.22441019212651E+02     0.14015827404919E+02
   Mg      0.10202609883315E+02     0.18500199943665E+02     0.99300657135879E+01
   Mg      0.14105285084357E+02     0.22402791502283E+02     0.18178354994026E+01
   Mg      0.14115664525215E+02     0.18333571473615E+02     0.58329124332492E+01
   Mg      0.10035988371517E+02     0.22413161645725E+02     0.58328993827690E+01
   Mg      0.10031718991006E+02     0.18329291127567E+02     0.18221525356039E+01
   Mg      0.14130346982326E+02     0.14231870332911E+02     0.26270958792372E+02
   Mg      0.14118519432300E+02     0.10096138840014E+02     0.30261762454962E+02
   Mg      0.10097044108463E+02     0.14231487990709E+02     0.30265812827695E+02
   Mg      0.10092831367364E+02     0.10091279102914E+02     0.26323950636671E+02
   Mg      0.14288154792118E+02     0.14315369529941E+02     0.18208304195051E+02
   Mg      0.14133309701098E+02     0.10091985381852E+02     0.22269202531891E+02
   Mg      0.10132967868621E+02     0.14184379363115E+02     0.22331927936518E+02
   Mg      0.10460837015830E+02     0.10147573383980E+02     0.18092342326129E+02
   Mg      0.14306859351056E+02     0.14309192074403E+02     0.98389092268744E+01
   Mg      0.14357205324836E+02     0.10000268107368E+02     0.14031238328500E+02
   Mg      0.10487661040763E+02     0.14197138145847E+02     0.13988509919817E+02
   Mg      0.10445283527080E+02     0.10143333169779E+02     0.99297134269983E+01
   Mg      0.14124875622506E+02     0.14233643643094E+02     0.17887492491185E+01
   Mg      0.14130252430209E+02     0.10096859588820E+02     0.57724844151206E+01
   Mg      0.10115585046511E+02     0.14186960703591E+02     0.57680386029681E+01
   Mg      0.10085867754083E+02     0.10097125302789E+02     0.17645613994794E+01
   Mg      0.14095004151515E+02     0.59961733885221E+01     0.26233969722508E+02
   Mg      0.14101573311333E+02     0.19277037945021E+01     0.30251299978471E+02
   Mg      0.10035847824859E+02     0.59932148300147E+01     0.30264706529051E+02
   Mg      0.10033159942417E+02     0.19343301767429E+01     0.26233986479102E+02
   Mg      0.14141285880750E+02     0.59238297212245E+01     0.18153742350553E+02
   Mg      0.14100583925866E+02     0.19290977191930E+01     0.22215002693491E+02
   Mg      0.99992796239416E+01     0.60301629123551E+01     0.22175873650790E+02
   Mg      0.10106150369619E+02     0.18882720269518E+01     0.18153795980014E+02
   Mg      0.14140488328674E+02     0.59247209954557E+01     0.98839831393485E+01
   Mg      0.14161496584571E+02     0.18685499895562E+01     0.14020784722982E+02
   Mg      0.10306936232281E+02     0.57224410506122E+01     0.13999786033047E+02
   Mg      0.10105097058287E+02     0.18887858308705E+01     0.98839487415659E+01
   Mg      0.14095586165095E+02     0.59947210047302E+01     0.18233445886039E+01
   Mg      0.14099715425573E+02     0.19297366333229E+01     0.58355135386995E+01
   Mg      0.99969532709525E+01     0.60321625841657E+01     0.58739602713181E+01
   Mg      0.10034425168825E+02     0.19335937363260E+01     0.18233258045619E+01
   Mg      0.59342633291628E+01     0.22427943033443E+02     0.26270927207984E+02
   Mg      0.59338497874838E+01     0.18394741640982E+02     0.30265802505485E+02
   Mg      0.17984006398489E+01     0.22416170040544E+02     0.30261743998436E+02
   Mg      0.17935706305508E+01     0.18390489283125E+02     0.26323931762663E+02
   Mg      0.60177654432121E+01     0.22585714878846E+02     0.18208316016690E+02
   Mg      0.58867412252106E+01     0.18430544284165E+02     0.22331869799434E+02
   Mg      0.17942613498860E+01     0.22431001957516E+02     0.22269186595616E+02
   Mg      0.18500010365616E+01     0.18758637756412E+02     0.18092317747941E+02
   Mg      0.60115790786214E+01     0.22604401896977E+02     0.98389407564807E+01
   Mg      0.58997975536766E+01     0.18785294936442E+02     0.13988527176714E+02
   Mg      0.17026128570449E+01     0.22654863178993E+02     0.14031238034093E+02
   Mg      0.18457880927367E+01     0.18743161656234E+02     0.99297346466070E+01
   Mg      0.59360443266426E+01     0.22422501645647E+02     0.17887305520948E+01
   Mg      0.58892789057364E+01     0.18413191176059E+02     0.57680580021520E+01
   Mg      0.17991847056687E+01     0.22428037758971E+02     0.57724910168343E+01
   Mg      0.17994575775279E+01     0.18383596005999E+02     0.17645917416530E+01
   Mg      0.59969742820368E+01     0.14294672473123E+02     0.26483828042388E+02
   Mg      0.59684018127435E+01     0.10060303025879E+02     0.30282303385514E+02
   Mg      0.17626790856519E+01     0.14266079385039E+02     0.30282320974834E+02
   Mg      0.17342186816659E+01     0.10031869405977E+02     0.26483852595030E+02
   Mg      0.59100396966713E+01     0.10119112807627E+02     0.22807730184299E+02
   Mg      0.18213884087917E+01     0.14207604945893E+02     0.22807723493427E+02
   Mg      0.59953145247047E+01     0.14293047723845E+02     0.16117440447572E+01
   Mg      0.58954006586779E+01     0.10133558512403E+02     0.53522597016684E+01
   Mg      0.18358929145912E+01     0.14192926086486E+02     0.53523022008028E+01
   Mg      0.17357521752165E+01     0.10033332843835E+02     0.16118863030713E+01
   Mg      0.59377478845644E+01     0.59362504202387E+01     0.26323978034698E+02
   Mg      0.59326454961953E+01     0.19106208591489E+01     0.30261733039911E+02
   Mg      0.17971934605930E+01     0.59318629797373E+01     0.30265838547848E+02
   Mg      0.17969999069584E+01     0.18990087364781E+01     0.26270880565954E+02
   Mg      0.58826387445604E+01     0.55686514471997E+01     0.18092300051153E+02
   Mg      0.59374324399145E+01     0.18962097361820E+01     0.22269208325690E+02
   Mg      0.18449391983092E+01     0.58966420283349E+01     0.22331817732194E+02
   Mg      0.17145572510273E+01     0.17417765629337E+01     0.18208274726534E+02
   Mg      0.58867163415022E+01     0.55836531887324E+01     0.99296365646397E+01
   Mg      0.60298212947431E+01     0.16725382343734E+01     0.14031136493348E+02
   Mg      0.18331312205987E+01     0.55422096398066E+01     0.13988304613057E+02
   Mg      0.17205845792665E+01     0.17224768198239E+01     0.98388909880411E+01
   Mg      0.59316523377464E+01     0.59429832038650E+01     0.17645671876246E+01
   Mg      0.59322990188303E+01     0.18988150852470E+01     0.57725082564500E+01
   Mg      0.18421809553259E+01     0.59136422090135E+01     0.57682727368745E+01
   Mg      0.17951140701208E+01     0.19043224059354E+01     0.17888078634326E+01
   O       0.18172146690188E+02     0.18326655427783E+02     0.30209164762706E+02
   O       0.18174487474231E+02     0.22397859298627E+02     0.26191213164491E+02
   O       0.22255698791149E+02     0.18316691626257E+02     0.26197330570341E+02
   O       0.22245389978373E+02     0.22400097836493E+02     0.30209159263612E+02
   O       0.18181456575271E+02     0.18327845756662E+02     0.22166386673703E+02
   O       0.18150427803732E+02     0.22423013724329E+02     0.18104415314374E+02
   O       0.22180131024981E+02     0.18392509651077E+02     0.18049121022323E+02
   O       0.22244838185871E+02     0.22391133329761E+02     0.22166241288599E+02
   O       0.18086143743632E+02     0.18446027441325E+02     0.13988689190572E+02
   O       0.18148041939305E+02     0.22425246747532E+02     0.98746439323151E+01
   O       0.22167997642616E+02     0.18404752464971E+02     0.99235808289080E+01
   O       0.22127749334898E+02     0.22486408833505E+02     0.13988754105483E+02
   O       0.18177345607145E+02     0.18340131337500E+02     0.58053894859770E+01
   O       0.18171903171393E+02     0.22400381221369E+02     0.17718569141134E+01
   O       0.22246025968202E+02     0.18326088255965E+02     0.17739689196651E+01
   O       0.22232245479176E+02     0.22395157475108E+02     0.58055214528564E+01
   O       0.18143950992640E+02     0.10100062459275E+02     0.30215847084457E+02
   O       0.18165155606070E+02     0.14226465830702E+02     0.26225131302532E+02
   O       0.22188254830885E+02     0.10105335253182E+02     0.26277803097650E+02
   O       0.22199778824443E+02     0.14225402443913E+02     0.30234097153551E+02
   O       0.18133975034632E+02     0.10100903122819E+02     0.22239475360526E+02
   O       0.18041887646976E+02     0.14311886224571E+02     0.18181503261184E+02
   O       0.21648202467424E+02     0.10153748844968E+02     0.18028051475708E+02
   O       0.22212354984648E+02     0.14209941095667E+02     0.22227042264281E+02
   O       0.18022721982831E+02     0.99833483891781E+01     0.13971662703571E+02
   O       0.18050066152625E+02     0.14318132676240E+02     0.97773124174162E+01
   O       0.21621414436487E+02     0.10135899619647E+02     0.98722646038892E+01
   O       0.21503728064492E+02     0.14120410260182E+02     0.13956169729613E+02
   O       0.18122163093212E+02     0.10091242089953E+02     0.57316185159103E+01
   O       0.18158230279288E+02     0.14230528107774E+02     0.17494175325994E+01
   O       0.22181152827864E+02     0.10097663297922E+02     0.17232732080891E+01
   O       0.22179633679631E+02     0.14222623581446E+02     0.57358723740739E+01
   O       0.18170330992788E+02     0.19263126338539E+01     0.30207628229810E+02
   O       0.18172002305743E+02     0.60012107934935E+01     0.26190737306560E+02
   O       0.22244965524527E+02     0.19280148150667E+01     0.26190731603595E+02
   O       0.22240651375472E+02     0.59967375761684E+01     0.30216364526789E+02
   O       0.18169692679868E+02     0.19256878716241E+01     0.22169876541181E+02
   O       0.18120643192269E+02     0.59114182797134E+01     0.18103386037040E+02
   O       0.22155527208576E+02     0.18768959832555E+01     0.18103360711304E+02
   O       0.22261653768834E+02     0.60178865384627E+01     0.22136714428794E+02
   O       0.18151134295337E+02     0.19071090118483E+01     0.13989983902461E+02
   O       0.18113707991387E+02     0.59014150207741E+01     0.98710319863494E+01
   O       0.22145542575740E+02     0.18700245215617E+01     0.98710801178892E+01
   O       0.22186290842431E+02     0.59423845888558E+01     0.13980392571736E+02
   O       0.18164694522248E+02     0.19206672058390E+01     0.58022356227501E+01
   O       0.18167570601856E+02     0.59939213459503E+01     0.17759860334381E+01
   O       0.22237839537270E+02     0.19235750196713E+01     0.17759820464613E+01
   O       0.22237862514929E+02     0.59939912383746E+01     0.58315348892137E+01
   O       0.10033167232446E+02     0.18330641298554E+02     0.30216378037438E+02
   O       0.10028934645629E+02     0.22399530378378E+02     0.26190870277632E+02
   O       0.14101995918741E+02     0.18326365400648E+02     0.26190868450719E+02
   O       0.14103639679976E+02     0.22401128657951E+02     0.30207643021925E+02
   O       0.10012909574686E+02     0.18310413738143E+02     0.22137132168139E+02
   O       0.10119382492723E+02     0.22451573223457E+02     0.18103567292720E+02
   O       0.14154039533933E+02     0.18417020924113E+02     0.18103500522379E+02
   O       0.14104804992525E+02     0.22402341293222E+02     0.22169960460345E+02
   O       0.10087886537134E+02     0.18385500210666E+02     0.13980478216384E+02
   O       0.10129193776120E+02     0.22458068350502E+02     0.98708676134418E+01
   O       0.14160561172260E+02     0.18426953407337E+02     0.98709132700387E+01
   O       0.14123693405858E+02     0.22421437983800E+02     0.13990000717114E+02
   O       0.10036194358972E+02     0.18333605885458E+02     0.58311414656129E+01
   O       0.10035993768285E+02     0.22403891935277E+02     0.17758958866139E+01
   O       0.14106384623589E+02     0.18333409988404E+02     0.17759125786569E+01
   O       0.14109690039996E+02     0.22407193390422E+02     0.58021505249065E+01
   O       0.10073529864216E+02     0.10101530159666E+02     0.30234075194690E+02
   O       0.10085282986114E+02     0.14221794178526E+02     0.26277861579642E+02
   O       0.14108900828537E+02     0.10100706218219E+02     0.26225084856117E+02
   O       0.14130078644048E+02     0.14226788743742E+02     0.30215835059017E+02
   O       0.10061300078062E+02     0.10117746365606E+02     0.22226935870946E+02
   O       0.10626261377122E+02     0.14175341053959E+02     0.18028546661111E+02
   O       0.14232249518918E+02     0.10016973333991E+02     0.18181616571094E+02
   O       0.14140506479645E+02     0.14226495281943E+02     0.22239701335709E+02
   O       0.10770974803592E+02     0.10208630784364E+02     0.13956353762733E+02
   O       0.10652142328354E+02     0.14192753178863E+02     0.98721633870100E+01
   O       0.14223545615529E+02     0.10010620345912E+02     0.97772191129535E+01
   O       0.14251617864494E+02     0.14345295776184E+02     0.13971657953705E+02
   O       0.10093751373248E+02     0.10104645158000E+02     0.57358717428454E+01
   O       0.10092286935024E+02     0.14229242640583E+02     0.17231391243311E+01
   O       0.14115630035750E+02     0.10096414635158E+02     0.17494339267130E+01
   O       0.14151886669993E+02     0.14235883075727E+02     0.57314629326872E+01
   O       0.10028475629842E+02     0.19273228886399E+01     0.30209149220378E+02
   O       0.10018409786922E+02     0.60110576198394E+01     0.26197361841214E+02
   O       0.14099593156080E+02     0.19297131959031E+01     0.26191212685396E+02
   O       0.14101770906177E+02     0.60008392021752E+01     0.30209161126160E+02
[...]
   Mg     -0.74571152004366E-04    -0.15428034645154E-04     0.42831682148799E-05
   Mg      0.17004079262040E-04     0.46548210302043E-04    -0.14547833718340E-04
   Mg     -0.60587519810727E-04    -0.14670131926316E-04     0.22916071430025E-04
   Mg     -0.21782646731264E-04    -0.86797787025254E-04     0.22861031097345E-04
   Mg     -0.10593641152895E-04    -0.11078725648605E-04    -0.24545661398669E-04
   Mg     -0.12738902397023E-04     0.11259356833004E-04    -0.43125158136488E-04
   Mg      0.11985001598202E-04    -0.12805086027936E-04    -0.42587076831776E-04
   Mg      0.98949568671739E-05     0.96072695949249E-05    -0.24546303515844E-04
   Mg     -0.85223422436351E-06    -0.78201193885795E-06     0.22285784015062E-04
   Mg     -0.28276511615185E-06    -0.10799258267726E-05     0.21904320954161E-04
   Mg      0.29435454902688E-04     0.28537444867972E-04    -0.19020441462544E-04
   Mg      0.11896497816231E-04    -0.13515664373501E-04     0.31758640033139E-04
   Mg     -0.12094036646918E-04     0.11779384781241E-04     0.31664339035350E-04
   Mg     -0.29816104369809E-04    -0.29819736258967E-04    -0.18990740668650E-04
   Mg     -0.15250461096757E-04    -0.50748025171941E-04     0.46044374441096E-04
   Mg      0.11253561699120E-05    -0.15628056793253E-04    -0.33397789603296E-04
   Mg      0.72056690358538E-05    -0.13366237939294E-04    -0.29346610999247E-04
   Mg     -0.65273636748223E-04    -0.28999724291465E-04    -0.11861664157776E-04
   Mg      0.99399644099257E-06     0.84746809638729E-05    -0.32097891008339E-04
   Mg     -0.41480683658132E-04    -0.92778641920688E-05     0.26693604716824E-04
   Mg      0.20251092711010E-04     0.44468208278403E-04    -0.22629109100986E-04
   Mg      0.83927301619783E-04     0.80187599072938E-05    -0.11406368442179E-03
   Mg      0.36484908636300E-04    -0.18249661943590E-04    -0.16690479269834E-04
   Mg     -0.27408959403138E-04     0.28043032376430E-05     0.16215817223779E-04
   Mg     -0.12780425562999E-04     0.12621648193887E-04     0.46249999575963E-04
   Mg     -0.11257582053023E-03    -0.18776222041292E-04    -0.97876435021434E-04
   Mg      0.20483026792447E-04     0.85723539168569E-04     0.23417043537627E-04
   Mg      0.59398252287608E-04     0.12357900564714E-04     0.22723153852391E-04
   Mg     -0.17217220140076E-04    -0.48051527461596E-04    -0.14591203359471E-04
   Mg      0.74112996244782E-04     0.13985970762145E-04     0.45407731911848E-05
   O      -0.30543258932970E-05    -0.12706603372899E-06     0.99035945655889E-06
   O      -0.25646799203433E-05     0.17682954339903E-05    -0.68339060375834E-06
   O      -0.74862751762118E-05     0.67932494476919E-05     0.20089674396061E-04
   O      -0.51345357579731E-06     0.22178944581842E-05     0.10118862302530E-05
   O       0.20074775394432E-05     0.11574454585962E-04     0.11189907673683E-04
   O      -0.21574764383066E-04     0.21209956440088E-04     0.92185411412404E-05
   O      -0.11583085247619E-04     0.10941900087533E-04    -0.19916483864301E-04
   O      -0.12301606354856E-04    -0.27637242181499E-05     0.11070325764403E-04
   O      -0.98821791239684E-06    -0.80388587613122E-05    -0.26569798351508E-04
   O       0.25038360805522E-04    -0.26163883063408E-04     0.20107351332869E-04
   O       0.12269825221551E-04    -0.13063369172775E-04    -0.16155966797458E-04
   O       0.73396872938497E-05     0.23831147359741E-06    -0.26472264508208E-04
   O      -0.18739674365427E-05    -0.12483679363661E-04     0.11963810886758E-04
   O       0.22363468868849E-05    -0.29728865981297E-05    -0.83439038633384E-05
   O       0.41108220867063E-05    -0.46284512501924E-05     0.17695769906337E-04
   O       0.11763029686763E-04     0.90379000577631E-06     0.11937594234041E-04
   O      -0.13865119638942E-05    -0.31103088983122E-05    -0.90971171514043E-05
   O      -0.32187815924248E-05    -0.63956032442454E-05     0.13823579385122E-04
   O       0.10171993836887E-06    -0.27547344325163E-05    -0.78660739421172E-06
   O      -0.17858090386230E-05     0.16263257144678E-05     0.11063041697598E-04
   O      -0.97311830065297E-05     0.18136288885195E-04    -0.57111286748965E-05
   O      -0.29065796043276E-05    -0.19358267554116E-04    -0.65502316419375E-05
   O      -0.84075298062217E-05    -0.10723897856548E-04     0.18862545758660E-04
   O       0.17637728998501E-05    -0.10851768661091E-04     0.70864227517987E-05
   O       0.14011209669082E-05     0.50046246517603E-07    -0.19705877559456E-04
   O       0.44592085989914E-05     0.14865417616686E-04    -0.82269756837994E-06
   O       0.43251453604037E-05     0.12628488431115E-04     0.13426389690721E-04
   O       0.21997992326415E-05     0.26955679966554E-05     0.28110846744767E-05
   O       0.43901251998864E-05    -0.16651795667478E-04    -0.22632573249476E-05
   O       0.11575697990530E-05     0.57046708875809E-05     0.70895392258723E-05
   O       0.10204740780672E-05     0.42931872123546E-05    -0.37859462259310E-05
   O      -0.17828362954692E-06     0.85046672531080E-05     0.96062848746158E-05
   O       0.20131940786698E-05     0.18728479878467E-05    -0.14287825513876E-04
   O      -0.22307402658030E-05    -0.40860838220055E-06    -0.14115375812748E-05
   O      -0.93285139147266E-07    -0.24716723412666E-05    -0.16074018224877E-05
   O       0.36675847349572E-06     0.12499957517480E-06     0.29719235495720E-04
   O      -0.47697127615274E-05    -0.49169289690686E-05     0.21645015427960E-04
   O      -0.81461379101736E-05     0.79002481826163E-05     0.48962031321679E-05
   O       0.81365815702231E-05    -0.83829022221307E-05     0.48971966841150E-05
   O      -0.74499875957696E-05    -0.77809293464095E-05     0.12880215499126E-04
   O      -0.13413336361185E-05    -0.16596492284778E-05    -0.14681082406061E-04
   O       0.50024117639076E-05    -0.11329361183491E-04    -0.19828975493538E-05
   O      -0.10889621318369E-04     0.45461481240819E-05    -0.19845404191120E-05
   O      -0.28334157447553E-06    -0.56278627973833E-06     0.37814411630630E-05
   O       0.13552218192416E-05     0.10657316511452E-05     0.14488365012714E-04
   O       0.13021143857017E-05     0.37348786180349E-06     0.49511445358297E-05
   O       0.65718485188384E-06     0.10325901280673E-05     0.47399320910178E-05
   O       0.84043832333240E-05     0.83804159602290E-05     0.12693881309018E-04
   O      -0.82078478544877E-06    -0.98859493573983E-06     0.29448631670785E-04
   O      -0.27777288651404E-06     0.14977665951006E-05    -0.15631875660278E-05
   O       0.18259005906345E-05    -0.40372178187922E-06    -0.16091835394784E-05
   O      -0.26468531070837E-05    -0.27493892380219E-05    -0.14312794115690E-04
   O       0.70266144569838E-05     0.67786482316513E-05     0.12943992135787E-04
   O      -0.85539470318814E-05     0.74737681560948E-05     0.49261337233829E-05
   O       0.77793551572339E-05    -0.87669300819827E-05     0.50129793398467E-05
   O       0.42952349837594E-05     0.40296868498239E-05     0.21656390894838E-04
   O      -0.12568612392950E-06    -0.30314030531955E-06     0.40396257722087E-05
   O       0.10434763810243E-04    -0.57053282832095E-05    -0.18493578888496E-05
   O      -0.53891449434277E-05     0.10314037996952E-04    -0.19346115365645E-05
   O       0.91172141249173E-06     0.80440878810349E-06    -0.14902716977274E-04
   O      -0.86643528594299E-05    -0.88828245986099E-05     0.12831044031911E-04
   O      -0.11587140275103E-05    -0.19731081396459E-05     0.48336917750690E-05
   O      -0.17211305388396E-05    -0.13776006250795E-05     0.48667294517378E-05
   O      -0.17112445968221E-05    -0.19526930903688E-05     0.14554979372913E-04
   O       0.13565044122879E-05    -0.25008390795483E-05     0.11254553361721E-04
   O      -0.32479986619488E-06     0.17901517511650E-05    -0.78385172731699E-06
   O       0.27423574636314E-05     0.54308677187604E-05     0.13811453006423E-04
   O       0.88425073770524E-06     0.21730025426577E-05    -0.92076082519146E-05
   O      -0.21512967777757E-05     0.99278951646618E-05     0.69757499980535E-05
   O       0.77390214184795E-05     0.98965322963239E-05     0.18939249580835E-04
   O       0.23667328934167E-05     0.18560984464325E-04    -0.65880579160770E-05
   O       0.92500361196480E-05    -0.19121260474894E-04    -0.57632760822436E-05
   O      -0.25793944264715E-05    -0.36006023610264E-05     0.25362596481583E-05
   O      -0.43845758438237E-05    -0.13556615644898E-04     0.13486363476959E-04
   O      -0.45789047847349E-05    -0.15673222333354E-04    -0.95510785262480E-06
   O      -0.17821266931383E-05    -0.11163129851046E-05    -0.19522587386360E-04
   O      -0.91088349000665E-07    -0.91760831100614E-05     0.95470376262601E-05
   O      -0.15508462959265E-05    -0.52388398289506E-05    -0.35805349445769E-05
   O      -0.14371903557645E-05    -0.65635118622546E-05     0.71301747559605E-05
   O      -0.48219716825343E-05     0.15422778828181E-04    -0.21979984389494E-05
   O       0.81924791171242E-07    -0.32719895931398E-05     0.10445816131877E-05
   O       0.69994411465791E-05    -0.77624288385938E-05     0.20060039198609E-04
   O       0.19547128066612E-05    -0.28693003803826E-05    -0.61016336400121E-06
   O       0.26781385699679E-05    -0.70862790750288E-06     0.91977816613921E-06
   O       0.11731690579290E-04     0.17145140125061E-05     0.11147230346684E-04
   O       0.11180363218564E-04    -0.11795848464363E-04    -0.19928420463411E-04
   O       0.21499075142045E-04    -0.21796350503330E-04     0.92571573727363E-05
   O      -0.24583002226194E-05    -0.12587892339183E-04     0.11150182983760E-04
   O      -0.78021202397382E-05    -0.10298977010052E-05    -0.26618724952258E-04
   O      -0.12693739212075E-04     0.11959006159705E-04    -0.16231967329912E-04
   O      -0.25807992671716E-04     0.24772487460962E-04     0.20148824034583E-04
   O       0.44228391031997E-06     0.71223091457190E-05    -0.26561807563059E-04
   O      -0.12255449385187E-04    -0.21904952021063E-05     0.11976389097745E-04
   O      -0.43786649263499E-05     0.38816894703242E-05     0.17494100921054E-04
   O      -0.23421138553571E-05     0.20162916874101E-05    -0.83617556892260E-05
   O       0.15532471888690E-05     0.11627968489145E-04     0.11925082228383E-04
   O      -0.23719986761583E-05     0.11600806967410E-05     0.11169256172502E-04
   O       0.56852267588157E-05     0.24904316561610E-05     0.13822564435424E-04
   O       0.19965813258716E-05    -0.52265006994338E-06    -0.77933563858653E-06
   O       0.24144451891813E-05     0.77987277677236E-06    -0.90941668129572E-05
   O       0.10130914284191E-04    -0.23325348742619E-05     0.69779975379264E-05
   O       0.18592180218691E-04     0.20176182821256E-05    -0.66469856044578E-05
   O       0.10053961022599E-04     0.74008298694382E-05     0.18869787086265E-04
   O      -0.18857435562783E-04     0.90831105066109E-05    -0.57983128408641E-05
   O      -0.35218603615535E-05    -0.29070085584264E-05     0.26348033000001E-05
   O      -0.15296172011928E-04    -0.48836861583318E-05    -0.10003591038969E-05
   O      -0.13345482364758E-04    -0.47655027694210E-05     0.13410525944188E-04
   O      -0.85000477577628E-06    -0.20554960009607E-05    -0.19546726644819E-04
   O      -0.90518377166033E-05    -0.35793538081738E-06     0.94949847685554E-05
   O      -0.62158717416862E-05    -0.18855682316933E-05     0.70880508753694E-05
   O      -0.48442386105104E-05    -0.17384840073223E-05    -0.36454280725245E-05
   O       0.15603028275024E-04    -0.49979029319116E-05    -0.22274714082697E-05
   O       0.37943656614743E-05     0.34617380759070E-05    -0.21634037223770E-04
   O       0.17723628218014E-05    -0.22754095859966E-05    -0.29535417256192E-05
   O      -0.20603485882077E-05     0.15716282209563E-05    -0.28723526973862E-05
   O      -0.41764110391071E-05    -0.45196572774136E-05    -0.21634409287912E-04
   O      -0.24977146770376E-05    -0.27437405491040E-05    -0.59991101855270E-07
   O       0.20235272509671E-05     0.17958581568916E-05    -0.77379897480898E-07
   O       0.73473098120306E-05     0.71033762455400E-05     0.17169174182201E-05
   O       0.43449524618831E-05    -0.50243852472774E-05    -0.81122231824094E-05
   O      -0.48389612762965E-05     0.40891744740334E-05    -0.81612109704564E-05
   O      -0.78853999036467E-05    -0.81636339517512E-05     0.17007090243985E-05
   O      -0.26782170734607E-05    -0.16373410984920E-05    -0.91934880185344E-05
   O      -0.25245782378434E-05    -0.11493516858738E-06    -0.73586741680527E-06
   O      -0.61530039006472E-05    -0.34316000448703E-05     0.13869716824870E-04
   O       0.17520707737071E-05    -0.20557301923859E-05     0.11203553875950E-04
   O       0.18379641976893E-04    -0.99234917358527E-05    -0.58093758190929E-05
   O      -0.10425528390046E-04    -0.85533328131101E-05     0.18824095490591E-04
   O      -0.19023942857662E-04    -0.30225769169154E-05    -0.65852352502706E-05
   O      -0.10649788925231E-04     0.15179040664800E-05     0.70981203228087E-05
   O       0.37321270179858E-06     0.11522450197041E-05    -0.19586928315354E-04
   O       0.13016023710010E-04     0.42512946141528E-05     0.13373524775844E-04
   O       0.14846615835319E-04     0.41915523785103E-05    -0.79244385821787E-06
   O       0.29469712838799E-05     0.19285996335511E-05     0.26714691291506E-05
   O      -0.16234499603503E-04     0.40112887527205E-05    -0.24157408634786E-05
   O       0.47232960512080E-05     0.82820441667372E-06    -0.35522766959071E-05
   O       0.58379378544639E-05     0.93417786939767E-06     0.71293575385750E-05
   O       0.85260720328533E-05    -0.39348568468475E-06     0.94443016643887E-05
 


   Partial temperatures (for each ionic specie) 
   Species  Temp (K)   Mean Square Displacement (a.u.)
        1   3.70E-04     2.1984E-03
        2   6.34E-04     5.6070E-03
        3   7.90E-03     2.8907E-04
 
  nfi     ekinc              temph  tempp     etot                 enthal               econs                econt              vnhh    xnhh0   vnhp    xnhp0
   5500    0.000000029600816    0.0    0.00   -2898.530496877284   -2898.544384171977   -2898.544378716570   -2898.544378686969   0.0000   0.0000   0.0000   0.0000
Elct. dipole 1  -29.904933  Ionic dipole 1   16.017638

   writing restart file (with schema): ./Ag16_334_59.save/
     restart      :     38.50s CPU     43.08s WALL (      12 calls)
   5501    0.000000029521051    0.0    0.00   -2898.530496871430   -2898.544384087873   -2898.544378643040   -2898.544378613519   0.0000   0.0000   0.0000   0.0000
Elct. dipole 1  -29.904908  Ionic dipole 1   16.017692
   5502    0.000000029444032    0.0    0.00   -2898.530496840098   -2898.544383981978   -2898.544378547938   -2898.544378518494   0.0000   0.0000   0.0000   0.0000
Elct. dipole 1  -29.904891  Ionic dipole 1   16.017749
   5503    0.000000029369802    0.0    0.00   -2898.530496861205   -2898.544383932052   -2898.544378509021   -2898.544378479652   0.0000   0.0000   0.0000   0.0000
Elct. dipole 1  -29.904880  Ionic dipole 1   16.017810
   5504    0.000000029297703    0.0    0.00   -2898.530496856385   -2898.544383860027   -2898.544378448215   -2898.544378418917   0.0000   0.0000   0.0000   0.0000
Elct. dipole 1  -29.904878  Ionic dipole 1   16.017874
   5505    0.000000029227387    0.0    0.00   -2898.530496852677   -2898.544383792937   -2898.544378392544   -2898.544378363316   0.0000   0.0000   0.0000   0.0000
Elct. dipole 1  -29.904882  Ionic dipole 1   16.017942
   5506    0.000000029159802    0.0    0.00   -2898.530496844657   -2898.544383725115   -2898.544378336339   -2898.544378307180   0.0000   0.0000   0.0000   0.0000
Elct. dipole 1  -29.904893  Ionic dipole 1   16.018013
   5507    0.000000029094349    0.0    0.00   -2898.530496839809   -2898.544383664400   -2898.544378287433   -2898.544378258339   0.0000   0.0000   0.0000   0.0000
Elct. dipole 1  -29.904912  Ionic dipole 1   16.018088
   5508    0.000000029031134    0.0    0.00   -2898.530496808349   -2898.544383580710   -2898.544378215736   -2898.544378186705   0.0000   0.0000   0.0000   0.0000
Elct. dipole 1  -29.904938  Ionic dipole 1   16.018166
   5509    0.000000028971001    0.0    0.00   -2898.530496797839   -2898.544383521617   -2898.544378168815   -2898.544378139844   0.0000   0.0000   0.0000   0.0000
Elct. dipole 1  -29.904971  Ionic dipole 1   16.018248
   5510    0.000000028913424    0.0    0.00   -2898.530496820495   -2898.544383499701   -2898.544378159244   -2898.544378130331   0.0000   0.0000   0.0000   0.0000
Elct. dipole 1  -29.905012  Ionic dipole 1   16.018333
   5511    0.000000028858508    0.0    0.00   -2898.530496786487   -2898.544383424814   -2898.544378096868   -2898.544378068009   0.0000   0.0000   0.0000   0.0000
Elct. dipole 1  -29.905059  Ionic dipole 1   16.018421
   5512    0.000000028806249    0.0    0.00   -2898.530496831807   -2898.544383433019   -2898.544378117743   -2898.544378088937   0.0000   0.0000   0.0000   0.0000
Elct. dipole 1  -29.905114  Ionic dipole 1   16.018513
   5513    0.000000028756459    0.0    0.00   -2898.530496827470   -2898.544383395274   -2898.544378092821   -2898.544378064065   0.0000   0.0000   0.0000   0.0000
Elct. dipole 1  -29.905176  Ionic dipole 1   16.018608
   5514    0.000000028709426    0.0    0.00   -2898.530496818577   -2898.544383356652   -2898.544378067169   -2898.544378038459   0.0000   0.0000   0.0000   0.0000
Elct. dipole 1  -29.905245  Ionic dipole 1   16.018707
   5515    0.000000028664552    0.0    0.00   -2898.530496810701   -2898.544383323083   -2898.544378046709   -2898.544378018044   0.0000   0.0000   0.0000   0.0000
Elct. dipole 1  -29.905321  Ionic dipole 1   16.018809
   5516    0.000000028621947    0.0    0.00   -2898.530496805062   -2898.544383295585   -2898.544378032451   -2898.544378003829   0.0000   0.0000   0.0000   0.0000
Elct. dipole 1  -29.905405  Ionic dipole 1   16.018914
   5517    0.000000028582272    0.0    0.00   -2898.530496795503   -2898.544383267847   -2898.544378018079   -2898.544377989497   0.0000   0.0000   0.0000   0.0000
Elct. dipole 1  -29.905495  Ionic dipole 1   16.019023
   5518    0.000000028544960    0.0    0.00   -2898.530496789162   -2898.544383247337   -2898.544378011053   -2898.544377982508   0.0000   0.0000   0.0000   0.0000
Elct. dipole 1  -29.905593  Ionic dipole 1   16.019135
   5519    0.000000028509958    0.0    0.00   -2898.530496807913   -2898.544383255587   -2898.544378032900   -2898.544378004390   0.0000   0.0000   0.0000   0.0000
Elct. dipole 1  -29.905698  Ionic dipole 1   16.019250
   5520    0.000000028477425    0.0    0.00   -2898.530496799148   -2898.544383240112   -2898.544378031124   -2898.544378002646   0.0000   0.0000   0.0000   0.0000
Elct. dipole 1  -29.905809  Ionic dipole 1   16.019368
   5521    0.000000028447656    0.0    0.00   -2898.530496764928   -2898.544383203023   -2898.544378007831   -2898.544377979384   0.0000   0.0000   0.0000   0.0000
Elct. dipole 1  -29.905928  Ionic dipole 1   16.019490
   5522    0.000000028421207    0.0    0.00   -2898.530496782430   -2898.544383221378   -2898.544378040073   -2898.544378011652   0.0000   0.0000   0.0000   0.0000
Elct. dipole 1  -29.906054  Ionic dipole 1   16.019615
   5523    0.000000028397147    0.0    0.00   -2898.530496747683   -2898.544383191501   -2898.544378024165   -2898.544377995768   0.0000   0.0000   0.0000   0.0000
Elct. dipole 1  -29.906187  Ionic dipole 1   16.019743
   5524    0.000000028375161    0.0    0.00   -2898.530496713510   -2898.544383166086   -2898.544378012793   -2898.544377984418   0.0000   0.0000   0.0000   0.0000
Elct. dipole 1  -29.906327  Ionic dipole 1   16.019874
   5525    0.000000028355779    0.0    0.00   -2898.530496702847   -2898.544383167824   -2898.544378028643   -2898.544378000287   0.0000   0.0000   0.0000   0.0000
Elct. dipole 1  -29.906474  Ionic dipole 1   16.020009
